<?xml version="1.0" encoding="UTF-8"?>

<!-- generated on 2024-11-20 18:44:47 by Eclipse SUMO GUI Version 1.21.0
<sumoConfiguration xmlns:xsi="http://www.w3.org/2001/XMLSchema-instance" xsi:noNamespaceSchemaLocation="http://sumo.dlr.de/xsd/sumoConfiguration.xsd">

    <input>
        <net-file value="data/cross.net.xml"/>
        <route-files value="data/cross.rou.xml"/>
        <additional-files value="data/cross.det.xml"/>
    </input>

    <output>
        <tripinfo-output value="tripinfo.xml"/>
    </output>

    <time>
        <begin value="0"/>
    </time>

    <report>
        <verbose value="true"/>
        <no-step-log value="true"/>
    </report>

    <traci_server>
        <remote-port value="51917"/>
    </traci_server>

</sumoConfiguration>
-->

<detector xmlns:xsi="http://www.w3.org/2001/XMLSchema-instance" xsi:noNamespaceSchemaLocation="http://sumo.dlr.de/xsd/det_e1_file.xsd">
    <interval begin="0.00" end="30.00" id="0" nVehContrib="0" flow="0.00" occupancy="0.00" speed="-1.00" harmonicMeanSpeed="-1.00" length="-1.00" nVehEntered="0"/>
    <interval begin="30.00" end="60.00" id="0" nVehContrib="1" flow="120.00" occupancy="1.46" speed="15.94" harmonicMeanSpeed="15.94" length="7.00" nVehEntered="1"/>
    <interval begin="60.00" end="90.00" id="0" nVehContrib="3" flow="360.00" occupancy="3.74" speed="18.75" harmonicMeanSpeed="18.70" length="7.00" nVehEntered="3"/>
    <interval begin="90.00" end="120.00" id="0" nVehContrib="3" flow="360.00" occupancy="3.41" speed="20.81" harmonicMeanSpeed="20.54" length="7.00" nVehEntered="3"/>
    <interval begin="120.00" end="150.00" id="0" nVehContrib="3" flow="360.00" occupancy="3.63" speed="19.38" harmonicMeanSpeed="19.26" length="7.00" nVehEntered="3"/>
    <interval begin="150.00" end="180.00" id="0" nVehContrib="1" flow="120.00" occupancy="1.19" speed="19.65" harmonicMeanSpeed="19.65" length="7.00" nVehEntered="1"/>
    <interval begin="180.00" end="210.00" id="0" nVehContrib="2" flow="240.00" occupancy="2.48" speed="18.84" harmonicMeanSpeed="18.80" length="7.00" nVehEntered="2"/>
    <interval begin="210.00" end="240.00" id="0" nVehContrib="0" flow="0.00" occupancy="0.00" speed="-1.00" harmonicMeanSpeed="-1.00" length="-1.00" nVehEntered="0"/>
    <interval begin="240.00" end="270.00" id="0" nVehContrib="3" flow="360.00" occupancy="3.66" speed="19.16" harmonicMeanSpeed="19.14" length="7.00" nVehEntered="3"/>
    <interval begin="270.00" end="300.00" id="0" nVehContrib="2" flow="240.00" occupancy="2.43" speed="19.59" harmonicMeanSpeed="19.24" length="7.00" nVehEntered="2"/>
    <interval begin="300.00" end="330.00" id="0" nVehContrib="4" flow="480.00" occupancy="4.93" speed="19.17" harmonicMeanSpeed="18.94" length="7.00" nVehEntered="4"/>
    <interval begin="330.00" end="360.00" id="0" nVehContrib="3" flow="360.00" occupancy="3.86" speed="18.27" harmonicMeanSpeed="18.13" length="7.00" nVehEntered="3"/>
    <interval begin="360.00" end="390.00" id="0" nVehContrib="2" flow="240.00" occupancy="2.22" speed="21.11" harmonicMeanSpeed="21.04" length="7.00" nVehEntered="2"/>
    <interval begin="390.00" end="420.00" id="0" nVehContrib="3" flow="360.00" occupancy="3.75" speed="19.85" harmonicMeanSpeed="19.76" length="7.00" nVehEntered="4"/>
    <interval begin="420.00" end="450.00" id="0" nVehContrib="4" flow="480.00" occupancy="4.94" speed="18.64" harmonicMeanSpeed="18.14" length="7.00" nVehEntered="3"/>
    <interval begin="450.00" end="480.00" id="0" nVehContrib="2" flow="240.00" occupancy="2.26" speed="20.67" harmonicMeanSpeed="20.67" length="7.00" nVehEntered="2"/>
    <interval begin="480.00" end="510.00" id="0" nVehContrib="2" flow="240.00" occupancy="2.26" speed="20.74" harmonicMeanSpeed="20.68" length="7.00" nVehEntered="2"/>
    <interval begin="510.00" end="540.00" id="0" nVehContrib="5" flow="600.00" occupancy="5.87" speed="20.05" harmonicMeanSpeed="19.89" length="7.00" nVehEntered="5"/>
    <interval begin="540.00" end="570.00" id="0" nVehContrib="4" flow="480.00" occupancy="5.09" speed="18.38" harmonicMeanSpeed="18.33" length="7.00" nVehEntered="4"/>
    <interval begin="570.00" end="600.00" id="0" nVehContrib="4" flow="480.00" occupancy="5.04" speed="18.71" harmonicMeanSpeed="18.52" length="7.00" nVehEntered="4"/>
    <interval begin="600.00" end="630.00" id="0" nVehContrib="5" flow="600.00" occupancy="5.87" speed="19.90" harmonicMeanSpeed="19.86" length="7.00" nVehEntered="5"/>
    <interval begin="630.00" end="660.00" id="0" nVehContrib="3" flow="360.00" occupancy="3.37" speed="20.79" harmonicMeanSpeed="20.78" length="7.00" nVehEntered="3"/>
    <interval begin="660.00" end="690.00" id="0" nVehContrib="1" flow="120.00" occupancy="1.33" speed="17.54" harmonicMeanSpeed="17.54" length="7.00" nVehEntered="1"/>
    <interval begin="690.00" end="720.00" id="0" nVehContrib="4" flow="480.00" occupancy="4.68" speed="20.07" harmonicMeanSpeed="19.94" length="7.00" nVehEntered="4"/>
    <interval begin="720.00" end="750.00" id="0" nVehContrib="3" flow="360.00" occupancy="3.74" speed="19.14" harmonicMeanSpeed="18.72" length="7.00" nVehEntered="3"/>
    <interval begin="750.00" end="780.00" id="0" nVehContrib="1" flow="120.00" occupancy="1.01" speed="23.00" harmonicMeanSpeed="23.00" length="7.00" nVehEntered="1"/>
    <interval begin="780.00" end="810.00" id="0" nVehContrib="3" flow="360.00" occupancy="3.47" speed="20.26" harmonicMeanSpeed="20.19" length="7.00" nVehEntered="3"/>
    <interval begin="810.00" end="840.00" id="0" nVehContrib="2" flow="240.00" occupancy="2.48" speed="18.84" harmonicMeanSpeed="18.84" length="7.00" nVehEntered="2"/>
    <interval begin="840.00" end="870.00" id="0" nVehContrib="2" flow="240.00" occupancy="2.40" speed="19.49" harmonicMeanSpeed="19.48" length="7.00" nVehEntered="2"/>
    <interval begin="870.00" end="900.00" id="0" nVehContrib="3" flow="360.00" occupancy="3.72" speed="18.96" harmonicMeanSpeed="18.80" length="7.00" nVehEntered="3"/>
    <interval begin="900.00" end="930.00" id="0" nVehContrib="3" flow="360.00" occupancy="3.91" speed="17.97" harmonicMeanSpeed="17.89" length="7.00" nVehEntered="3"/>
    <interval begin="930.00" end="960.00" id="0" nVehContrib="0" flow="0.00" occupancy="0.00" speed="-1.00" harmonicMeanSpeed="-1.00" length="-1.00" nVehEntered="0"/>
    <interval begin="960.00" end="990.00" id="0" nVehContrib="3" flow="360.00" occupancy="3.85" speed="18.48" harmonicMeanSpeed="18.18" length="7.00" nVehEntered="3"/>
    <interval begin="990.00" end="1020.00" id="0" nVehContrib="3" flow="360.00" occupancy="3.86" speed="18.37" harmonicMeanSpeed="18.11" length="7.00" nVehEntered="3"/>
    <interval begin="1020.00" end="1050.00" id="0" nVehContrib="5" flow="600.00" occupancy="5.55" speed="21.28" harmonicMeanSpeed="21.04" length="7.00" nVehEntered="5"/>
    <interval begin="1050.00" end="1080.00" id="0" nVehContrib="5" flow="600.00" occupancy="6.50" speed="18.14" harmonicMeanSpeed="17.96" length="7.00" nVehEntered="5"/>
    <interval begin="1080.00" end="1110.00" id="0" nVehContrib="3" flow="360.00" occupancy="3.55" speed="19.91" harmonicMeanSpeed="19.69" length="7.00" nVehEntered="3"/>
    <interval begin="1110.00" end="1140.00" id="0" nVehContrib="2" flow="240.00" occupancy="2.31" speed="20.27" harmonicMeanSpeed="20.18" length="7.00" nVehEntered="2"/>
    <interval begin="1140.00" end="1170.00" id="0" nVehContrib="0" flow="0.00" occupancy="0.00" speed="-1.00" harmonicMeanSpeed="-1.00" length="-1.00" nVehEntered="0"/>
    <interval begin="1170.00" end="1200.00" id="0" nVehContrib="0" flow="0.00" occupancy="0.00" speed="-1.00" harmonicMeanSpeed="-1.00" length="-1.00" nVehEntered="0"/>
    <interval begin="1200.00" end="1230.00" id="0" nVehContrib="6" flow="720.00" occupancy="7.13" speed="20.03" harmonicMeanSpeed="19.62" length="7.00" nVehEntered="6"/>
    <interval begin="1230.00" end="1260.00" id="0" nVehContrib="4" flow="480.00" occupancy="4.84" speed="19.46" harmonicMeanSpeed="19.27" length="7.00" nVehEntered="4"/>
    <interval begin="1260.00" end="1290.00" id="0" nVehContrib="3" flow="360.00" occupancy="4.34" speed="16.35" harmonicMeanSpeed="16.12" length="7.00" nVehEntered="3"/>
    <interval begin="1290.00" end="1320.00" id="0" nVehContrib="2" flow="240.00" occupancy="2.42" speed="19.35" harmonicMeanSpeed="19.32" length="7.00" nVehEntered="2"/>
    <interval begin="1320.00" end="1350.00" id="0" nVehContrib="2" flow="240.00" occupancy="2.34" speed="19.95" harmonicMeanSpeed="19.91" length="7.00" nVehEntered="2"/>
    <interval begin="1350.00" end="1380.00" id="0" nVehContrib="1" flow="120.00" occupancy="1.03" speed="22.57" harmonicMeanSpeed="22.57" length="7.00" nVehEntered="1"/>
    <interval begin="1380.00" end="1410.00" id="0" nVehContrib="1" flow="120.00" occupancy="1.08" speed="21.56" harmonicMeanSpeed="21.56" length="7.00" nVehEntered="1"/>
    <interval begin="1410.00" end="1440.00" id="0" nVehContrib="4" flow="480.00" occupancy="4.96" speed="18.89" harmonicMeanSpeed="18.80" length="7.00" nVehEntered="4"/>
    <interval begin="1440.00" end="1470.00" id="0" nVehContrib="4" flow="480.00" occupancy="4.90" speed="19.06" harmonicMeanSpeed="19.05" length="7.00" nVehEntered="4"/>
    <interval begin="1470.00" end="1500.00" id="0" nVehContrib="4" flow="480.00" occupancy="4.68" speed="20.06" harmonicMeanSpeed="19.96" length="7.00" nVehEntered="4"/>
    <interval begin="1500.00" end="1530.00" id="0" nVehContrib="3" flow="360.00" occupancy="3.81" speed="18.66" harmonicMeanSpeed="18.37" length="7.00" nVehEntered="3"/>
    <interval begin="1530.00" end="1560.00" id="0" nVehContrib="4" flow="480.00" occupancy="5.48" speed="17.13" harmonicMeanSpeed="17.04" length="7.00" nVehEntered="4"/>
    <interval begin="1560.00" end="1590.00" id="0" nVehContrib="5" flow="600.00" occupancy="6.34" speed="18.40" harmonicMeanSpeed="18.39" length="7.00" nVehEntered="5"/>
    <interval begin="1590.00" end="1620.00" id="0" nVehContrib="5" flow="600.00" occupancy="5.78" speed="20.27" harmonicMeanSpeed="20.17" length="7.00" nVehEntered="5"/>
    <interval begin="1620.00" end="1650.00" id="0" nVehContrib="3" flow="360.00" occupancy="3.38" speed="20.73" harmonicMeanSpeed="20.69" length="7.00" nVehEntered="3"/>
    <interval begin="1650.00" end="1680.00" id="0" nVehContrib="3" flow="360.00" occupancy="3.29" speed="21.30" harmonicMeanSpeed="21.26" length="7.00" nVehEntered="3"/>
    <interval begin="1680.00" end="1710.00" id="0" nVehContrib="4" flow="480.00" occupancy="4.62" speed="20.26" harmonicMeanSpeed="20.21" length="7.00" nVehEntered="4"/>
    <interval begin="1710.00" end="1740.00" id="0" nVehContrib="4" flow="480.00" occupancy="4.62" speed="20.33" harmonicMeanSpeed="20.21" length="7.00" nVehEntered="4"/>
    <interval begin="1740.00" end="1770.00" id="0" nVehContrib="2" flow="240.00" occupancy="3.35" speed="20.11" harmonicMeanSpeed="20.10" length="7.00" nVehEntered="3"/>
    <interval begin="1770.00" end="1800.00" id="0" nVehContrib="6" flow="720.00" occupancy="6.61" speed="18.47" harmonicMeanSpeed="18.33" length="7.00" nVehEntered="5"/>
    <interval begin="1800.00" end="1830.00" id="0" nVehContrib="4" flow="480.00" occupancy="5.09" speed="18.45" harmonicMeanSpeed="18.34" length="7.00" nVehEntered="4"/>
    <interval begin="1830.00" end="1860.00" id="0" nVehContrib="3" flow="360.00" occupancy="3.60" speed="19.50" harmonicMeanSpeed="19.45" length="7.00" nVehEntered="3"/>
    <interval begin="1860.00" end="1890.00" id="0" nVehContrib="4" flow="480.00" occupancy="4.92" speed="19.04" harmonicMeanSpeed="18.96" length="7.00" nVehEntered="4"/>
    <interval begin="1890.00" end="1920.00" id="0" nVehContrib="5" flow="600.00" occupancy="6.60" speed="17.91" harmonicMeanSpeed="17.67" length="7.00" nVehEntered="5"/>
    <interval begin="1920.00" end="1950.00" id="0" nVehContrib="4" flow="480.00" occupancy="4.76" speed="20.04" harmonicMeanSpeed="19.61" length="7.00" nVehEntered="4"/>
    <interval begin="1950.00" end="1980.00" id="0" nVehContrib="2" flow="240.00" occupancy="2.35" speed="19.93" harmonicMeanSpeed="19.87" length="7.00" nVehEntered="2"/>
    <interval begin="1980.00" end="2010.00" id="0" nVehContrib="1" flow="120.00" occupancy="1.06" speed="22.08" harmonicMeanSpeed="22.08" length="7.00" nVehEntered="1"/>
    <interval begin="2010.00" end="2040.00" id="0" nVehContrib="2" flow="240.00" occupancy="2.23" speed="20.93" harmonicMeanSpeed="20.90" length="7.00" nVehEntered="2"/>
    <interval begin="2040.00" end="2070.00" id="0" nVehContrib="3" flow="360.00" occupancy="3.41" speed="20.69" harmonicMeanSpeed="20.53" length="7.00" nVehEntered="3"/>
    <interval begin="2070.00" end="2100.00" id="0" nVehContrib="1" flow="120.00" occupancy="1.18" speed="19.77" harmonicMeanSpeed="19.77" length="7.00" nVehEntered="1"/>
    <interval begin="2100.00" end="2130.00" id="0" nVehContrib="2" flow="240.00" occupancy="2.46" speed="18.97" harmonicMeanSpeed="18.97" length="7.00" nVehEntered="2"/>
    <interval begin="2130.00" end="2160.00" id="0" nVehContrib="4" flow="480.00" occupancy="5.15" speed="18.17" harmonicMeanSpeed="18.13" length="7.00" nVehEntered="4"/>
    <interval begin="2160.00" end="2190.00" id="0" nVehContrib="2" flow="240.00" occupancy="2.51" speed="18.65" harmonicMeanSpeed="18.59" length="7.00" nVehEntered="2"/>
    <interval begin="2190.00" end="2220.00" id="0" nVehContrib="4" flow="480.00" occupancy="5.06" speed="18.49" harmonicMeanSpeed="18.45" length="7.00" nVehEntered="4"/>
    <interval begin="2220.00" end="2250.00" id="0" nVehContrib="2" flow="240.00" occupancy="2.53" speed="19.16" harmonicMeanSpeed="18.45" length="7.00" nVehEntered="2"/>
    <interval begin="2250.00" end="2280.00" id="0" nVehContrib="4" flow="480.00" occupancy="4.89" speed="19.16" harmonicMeanSpeed="19.07" length="7.00" nVehEntered="4"/>
    <interval begin="2280.00" end="2310.00" id="0" nVehContrib="3" flow="360.00" occupancy="3.31" speed="21.36" harmonicMeanSpeed="21.17" length="7.00" nVehEntered="3"/>
    <interval begin="2310.00" end="2340.00" id="0" nVehContrib="4" flow="480.00" occupancy="4.96" speed="18.92" harmonicMeanSpeed="18.83" length="7.00" nVehEntered="4"/>
    <interval begin="2340.00" end="2370.00" id="0" nVehContrib="2" flow="240.00" occupancy="2.42" speed="19.33" harmonicMeanSpeed="19.27" length="7.00" nVehEntered="2"/>
    <interval begin="2370.00" end="2400.00" id="0" nVehContrib="2" flow="240.00" occupancy="2.57" speed="18.30" harmonicMeanSpeed="18.18" length="7.00" nVehEntered="2"/>
    <interval begin="2400.00" end="2430.00" id="0" nVehContrib="2" flow="240.00" occupancy="2.64" speed="17.70" harmonicMeanSpeed="17.67" length="7.00" nVehEntered="2"/>
    <interval begin="2430.00" end="2460.00" id="0" nVehContrib="5" flow="600.00" occupancy="6.66" speed="17.59" harmonicMeanSpeed="17.52" length="7.00" nVehEntered="5"/>
    <interval begin="2460.00" end="2490.00" id="0" nVehContrib="1" flow="120.00" occupancy="1.13" speed="20.71" harmonicMeanSpeed="20.71" length="7.00" nVehEntered="1"/>
    <interval begin="2490.00" end="2520.00" id="0" nVehContrib="5" flow="600.00" occupancy="6.82" speed="17.22" harmonicMeanSpeed="17.10" length="7.00" nVehEntered="5"/>
    <interval begin="2520.00" end="2550.00" id="0" nVehContrib="1" flow="120.00" occupancy="1.12" speed="20.87" harmonicMeanSpeed="20.87" length="7.00" nVehEntered="1"/>
    <interval begin="2550.00" end="2580.00" id="0" nVehContrib="5" flow="600.00" occupancy="5.98" speed="19.56" harmonicMeanSpeed="19.50" length="7.00" nVehEntered="5"/>
    <interval begin="2580.00" end="2610.00" id="0" nVehContrib="4" flow="480.00" occupancy="4.95" speed="19.45" harmonicMeanSpeed="19.13" length="7.00" nVehEntered="5"/>
    <interval begin="2610.00" end="2640.00" id="0" nVehContrib="3" flow="360.00" occupancy="3.70" speed="19.21" harmonicMeanSpeed="18.54" length="7.00" nVehEntered="2"/>
    <interval begin="2640.00" end="2670.00" id="0" nVehContrib="2" flow="240.00" occupancy="2.43" speed="19.50" harmonicMeanSpeed="19.24" length="7.00" nVehEntered="2"/>
    <interval begin="2670.00" end="2700.00" id="0" nVehContrib="3" flow="360.00" occupancy="3.37" speed="20.78" harmonicMeanSpeed="20.77" length="7.00" nVehEntered="3"/>
    <interval begin="2700.00" end="2730.00" id="0" nVehContrib="2" flow="240.00" occupancy="2.42" speed="19.26" harmonicMeanSpeed="19.26" length="7.00" nVehEntered="2"/>
    <interval begin="2730.00" end="2760.00" id="0" nVehContrib="3" flow="360.00" occupancy="4.33" speed="16.66" harmonicMeanSpeed="16.18" length="7.00" nVehEntered="3"/>
    <interval begin="2760.00" end="2790.00" id="0" nVehContrib="4" flow="480.00" occupancy="4.88" speed="19.27" harmonicMeanSpeed="19.14" length="7.00" nVehEntered="4"/>
    <interval begin="2790.00" end="2820.00" id="0" nVehContrib="5" flow="600.00" occupancy="6.34" speed="18.78" harmonicMeanSpeed="18.39" length="7.00" nVehEntered="5"/>
    <interval begin="2820.00" end="2850.00" id="0" nVehContrib="2" flow="240.00" occupancy="2.58" speed="18.11" harmonicMeanSpeed="18.11" length="7.00" nVehEntered="2"/>
    <interval begin="2850.00" end="2880.00" id="0" nVehContrib="3" flow="360.00" occupancy="3.55" speed="19.85" harmonicMeanSpeed="19.72" length="7.00" nVehEntered="3"/>
    <interval begin="2880.00" end="2910.00" id="0" nVehContrib="3" flow="360.00" occupancy="4.18" speed="16.95" harmonicMeanSpeed="16.74" length="7.00" nVehEntered="3"/>
    <interval begin="2910.00" end="2940.00" id="0" nVehContrib="1" flow="120.00" occupancy="1.15" speed="20.22" harmonicMeanSpeed="20.22" length="7.00" nVehEntered="1"/>
    <interval begin="2940.00" end="2970.00" id="0" nVehContrib="4" flow="480.00" occupancy="4.91" speed="19.07" harmonicMeanSpeed="19.00" length="7.00" nVehEntered="4"/>
    <interval begin="2970.00" end="3000.00" id="0" nVehContrib="4" flow="480.00" occupancy="5.32" speed="17.65" harmonicMeanSpeed="17.55" length="7.00" nVehEntered="4"/>
    <interval begin="3000.00" end="3030.00" id="0" nVehContrib="0" flow="0.00" occupancy="0.00" speed="-1.00" harmonicMeanSpeed="-1.00" length="-1.00" nVehEntered="0"/>
    <interval begin="3030.00" end="3060.00" id="0" nVehContrib="3" flow="360.00" occupancy="3.46" speed="20.32" harmonicMeanSpeed="20.23" length="7.00" nVehEntered="3"/>
    <interval begin="3060.00" end="3090.00" id="0" nVehContrib="0" flow="0.00" occupancy="0.00" speed="-1.00" harmonicMeanSpeed="-1.00" length="-1.00" nVehEntered="0"/>
    <interval begin="3090.00" end="3120.00" id="0" nVehContrib="4" flow="480.00" occupancy="4.57" speed="20.55" harmonicMeanSpeed="20.41" length="7.00" nVehEntered="4"/>
    <interval begin="3120.00" end="3150.00" id="0" nVehContrib="4" flow="480.00" occupancy="4.74" speed="19.94" harmonicMeanSpeed="19.69" length="7.00" nVehEntered="4"/>
    <interval begin="3150.00" end="3180.00" id="0" nVehContrib="1" flow="120.00" occupancy="1.15" speed="20.24" harmonicMeanSpeed="20.24" length="7.00" nVehEntered="1"/>
    <interval begin="3180.00" end="3210.00" id="0" nVehContrib="3" flow="360.00" occupancy="3.93" speed="17.94" harmonicMeanSpeed="17.81" length="7.00" nVehEntered="3"/>
    <interval begin="3210.00" end="3240.00" id="0" nVehContrib="3" flow="360.00" occupancy="3.77" speed="18.69" harmonicMeanSpeed="18.59" length="7.00" nVehEntered="3"/>
    <interval begin="3240.00" end="3270.00" id="0" nVehContrib="2" flow="240.00" occupancy="2.39" speed="19.53" harmonicMeanSpeed="19.53" length="7.00" nVehEntered="2"/>
    <interval begin="3270.00" end="3300.00" id="0" nVehContrib="4" flow="480.00" occupancy="5.11" speed="18.29" harmonicMeanSpeed="18.26" length="7.00" nVehEntered="4"/>
    <interval begin="3300.00" end="3330.00" id="0" nVehContrib="3" flow="360.00" occupancy="3.97" speed="17.75" harmonicMeanSpeed="17.63" length="7.00" nVehEntered="3"/>
    <interval begin="3330.00" end="3360.00" id="0" nVehContrib="6" flow="720.00" occupancy="7.41" speed="19.17" harmonicMeanSpeed="18.90" length="7.00" nVehEntered="6"/>
    <interval begin="3360.00" end="3390.00" id="0" nVehContrib="4" flow="480.00" occupancy="4.83" speed="19.63" harmonicMeanSpeed="19.34" length="7.00" nVehEntered="4"/>
    <interval begin="3390.00" end="3420.00" id="0" nVehContrib="0" flow="0.00" occupancy="0.00" speed="-1.00" harmonicMeanSpeed="-1.00" length="-1.00" nVehEntered="0"/>
    <interval begin="3420.00" end="3450.00" id="0" nVehContrib="5" flow="600.00" occupancy="6.76" speed="17.39" harmonicMeanSpeed="17.26" length="7.00" nVehEntered="5"/>
    <interval begin="3450.00" end="3480.00" id="0" nVehContrib="5" flow="600.00" occupancy="6.39" speed="18.31" harmonicMeanSpeed="18.26" length="7.00" nVehEntered="5"/>
    <interval begin="3480.00" end="3510.00" id="0" nVehContrib="5" flow="600.00" occupancy="6.40" speed="18.49" harmonicMeanSpeed="18.23" length="7.00" nVehEntered="5"/>
    <interval begin="3510.00" end="3540.00" id="0" nVehContrib="4" flow="480.00" occupancy="4.93" speed="19.04" harmonicMeanSpeed="18.92" length="7.00" nVehEntered="4"/>
    <interval begin="3540.00" end="3570.00" id="0" nVehContrib="3" flow="360.00" occupancy="3.55" speed="19.75" harmonicMeanSpeed="19.74" length="7.00" nVehEntered="3"/>
    <interval begin="3570.00" end="3600.00" id="0" nVehContrib="4" flow="480.00" occupancy="4.57" speed="20.55" harmonicMeanSpeed="20.43" length="7.00" nVehEntered="4"/>
    <interval begin="3600.00" end="3630.00" id="0" nVehContrib="3" flow="360.00" occupancy="4.21" speed="17.03" harmonicMeanSpeed="16.63" length="7.00" nVehEntered="3"/>
    <interval begin="3630.00" end="3660.00" id="0" nVehContrib="1" flow="120.00" occupancy="1.32" speed="17.74" harmonicMeanSpeed="17.74" length="7.00" nVehEntered="1"/>
    <interval begin="3660.00" end="3690.00" id="0" nVehContrib="0" flow="0.00" occupancy="0.00" speed="-1.00" harmonicMeanSpeed="-1.00" length="-1.00" nVehEntered="0"/>
    <interval begin="3690.00" end="3720.00" id="0" nVehContrib="0" flow="0.00" occupancy="0.00" speed="-1.00" harmonicMeanSpeed="-1.00" length="-1.00" nVehEntered="0"/>
    <interval begin="3720.00" end="3750.00" id="0" nVehContrib="0" flow="0.00" occupancy="0.00" speed="-1.00" harmonicMeanSpeed="-1.00" length="-1.00" nVehEntered="0"/>
    <interval begin="3750.00" end="3780.00" id="0" nVehContrib="0" flow="0.00" occupancy="0.00" speed="-1.00" harmonicMeanSpeed="-1.00" length="-1.00" nVehEntered="0"/>
    <interval begin="3780.00" end="3810.00" id="0" nVehContrib="0" flow="0.00" occupancy="0.00" speed="-1.00" harmonicMeanSpeed="-1.00" length="-1.00" nVehEntered="0"/>
    <interval begin="3810.00" end="3840.00" id="0" nVehContrib="0" flow="0.00" occupancy="0.00" speed="-1.00" harmonicMeanSpeed="-1.00" length="-1.00" nVehEntered="0"/>
    <interval begin="3840.00" end="3870.00" id="0" nVehContrib="0" flow="0.00" occupancy="0.00" speed="-1.00" harmonicMeanSpeed="-1.00" length="-1.00" nVehEntered="0"/>
    <interval begin="3870.00" end="3900.00" id="0" nVehContrib="0" flow="0.00" occupancy="0.00" speed="-1.00" harmonicMeanSpeed="-1.00" length="-1.00" nVehEntered="0"/>
    <interval begin="3900.00" end="3930.00" id="0" nVehContrib="0" flow="0.00" occupancy="0.00" speed="-1.00" harmonicMeanSpeed="-1.00" length="-1.00" nVehEntered="0"/>
    <interval begin="3930.00" end="3960.00" id="0" nVehContrib="0" flow="0.00" occupancy="0.00" speed="-1.00" harmonicMeanSpeed="-1.00" length="-1.00" nVehEntered="0"/>
    <interval begin="3960.00" end="3990.00" id="0" nVehContrib="0" flow="0.00" occupancy="0.00" speed="-1.00" harmonicMeanSpeed="-1.00" length="-1.00" nVehEntered="0"/>
    <interval begin="3990.00" end="4020.00" id="0" nVehContrib="0" flow="0.00" occupancy="0.00" speed="-1.00" harmonicMeanSpeed="-1.00" length="-1.00" nVehEntered="0"/>
    <interval begin="4020.00" end="4050.00" id="0" nVehContrib="0" flow="0.00" occupancy="0.00" speed="-1.00" harmonicMeanSpeed="-1.00" length="-1.00" nVehEntered="0"/>
    <interval begin="4050.00" end="4080.00" id="0" nVehContrib="0" flow="0.00" occupancy="0.00" speed="-1.00" harmonicMeanSpeed="-1.00" length="-1.00" nVehEntered="0"/>
    <interval begin="4080.00" end="4110.00" id="0" nVehContrib="0" flow="0.00" occupancy="0.00" speed="-1.00" harmonicMeanSpeed="-1.00" length="-1.00" nVehEntered="0"/>
    <interval begin="4110.00" end="4140.00" id="0" nVehContrib="0" flow="0.00" occupancy="0.00" speed="-1.00" harmonicMeanSpeed="-1.00" length="-1.00" nVehEntered="0"/>
    <interval begin="4140.00" end="4170.00" id="0" nVehContrib="0" flow="0.00" occupancy="0.00" speed="-1.00" harmonicMeanSpeed="-1.00" length="-1.00" nVehEntered="0"/>
    <interval begin="4170.00" end="4180.00" id="0" nVehContrib="0" flow="0.00" occupancy="0.00" speed="-1.00" harmonicMeanSpeed="-1.00" length="-1.00" nVehEntered="0"/>
</detector>
