<?xml version="1.0" encoding="UTF-8"?>

<!-- generated on 2024-11-23 01:10:39 by Eclipse SUMO GUI Version 1.15.0
<configuration xmlns:xsi="http://www.w3.org/2001/XMLSchema-instance" xsi:noNamespaceSchemaLocation="http://sumo.dlr.de/xsd/sumoConfiguration.xsd">

    <input>
        <net-file value="data/cross.net.xml"/>
        <route-files value="data/cross.rou.xml"/>
        <additional-files value="data/cross.det.xml"/>
    </input>

    <output>
        <tripinfo-output value="tripinfo.xml"/>
    </output>

    <time>
        <begin value="0"/>
        <step-length value="1.0"/>
    </time>

    <processing>
        <collision.action value="warn"/>
    </processing>

    <report>
        <verbose value="true"/>
        <no-step-log value="true"/>
    </report>

    <traci_server>
        <remote-port value="47471"/>
    </traci_server>

</configuration>
-->

<tripinfos xmlns:xsi="http://www.w3.org/2001/XMLSchema-instance" xsi:noNamespaceSchemaLocation="http://sumo.dlr.de/xsd/tripinfo_file.xsd">
    <tripinfo id="left_0" depart="0.00" departLane="52o_0" departPos="5.10" departSpeed="0.00" departDelay="0.00" arrival="88.00" arrivalLane="51i_0" arrivalPos="10.00" arrivalSpeed="12.23" duration="88.00" routeLength="1015.10" waitingTime="0.00" waitingCount="0" stopTime="0.00" timeLoss="14.62" rerouteNo="0" devices="tripinfo_left_0" vType="typeWE@left_0" speedFactor="1.06" vaporized=""/>
    <tripinfo id="right_3" depart="3.00" departLane="51o_0" departPos="5.10" departSpeed="0.00" departDelay="0.00" arrival="91.00" arrivalLane="52i_0" arrivalPos="10.00" arrivalSpeed="12.11" duration="88.00" routeLength="1015.10" waitingTime="0.00" waitingCount="0" stopTime="0.00" timeLoss="14.93" rerouteNo="0" devices="tripinfo_right_3" vType="typeWE@right_3" speedFactor="1.08" vaporized=""/>
    <tripinfo id="up_1" depart="1.00" departLane="53o_0" departPos="7.10" departSpeed="0.00" departDelay="0.00" arrival="94.00" arrivalLane="54i_0" arrivalPos="10.00" arrivalSpeed="10.65" duration="93.00" routeLength="1013.10" waitingTime="0.00" waitingCount="0" stopTime="0.00" timeLoss="16.94" rerouteNo="0" devices="tripinfo_up_1" vType="typeNS@up_1" speedFactor="0.94" vaporized=""/>
    <tripinfo id="left_2" depart="5.00" departLane="52o_0" departPos="5.10" departSpeed="0.00" departDelay="3.00" arrival="95.00" arrivalLane="51i_0" arrivalPos="10.00" arrivalSpeed="11.83" duration="90.00" routeLength="1015.10" waitingTime="0.00" waitingCount="0" stopTime="0.00" timeLoss="14.68" rerouteNo="0" devices="tripinfo_left_2" vType="typeWE@left_2" speedFactor="1.01" vaporized=""/>
    <tripinfo id="up_4" depart="7.00" departLane="53o_0" departPos="7.10" departSpeed="0.00" departDelay="3.00" arrival="96.00" arrivalLane="54i_0" arrivalPos="10.00" arrivalSpeed="12.07" duration="89.00" routeLength="1013.10" waitingTime="0.00" waitingCount="0" stopTime="0.00" timeLoss="19.21" rerouteNo="0" devices="tripinfo_up_4" vType="typeNS@up_4" speedFactor="1.03" vaporized=""/>
    <tripinfo id="up_6" depart="13.00" departLane="53o_0" departPos="7.10" departSpeed="0.00" departDelay="7.00" arrival="100.00" arrivalLane="54i_0" arrivalPos="10.00" arrivalSpeed="12.10" duration="87.00" routeLength="1013.10" waitingTime="0.00" waitingCount="0" stopTime="0.00" timeLoss="18.32" rerouteNo="0" devices="tripinfo_up_6" vType="typeNS@up_6" speedFactor="1.05" vaporized=""/>
    <tripinfo id="left_7" depart="10.00" departLane="52o_0" departPos="5.10" departSpeed="0.00" departDelay="0.00" arrival="107.00" arrivalLane="51i_0" arrivalPos="10.00" arrivalSpeed="10.07" duration="97.00" routeLength="1015.10" waitingTime="0.00" waitingCount="0" stopTime="0.00" timeLoss="15.11" rerouteNo="0" devices="tripinfo_left_7" vType="typeWE@left_7" speedFactor="0.89" vaporized=""/>
    <tripinfo id="down_5" depart="6.00" departLane="54o_0" departPos="7.10" departSpeed="0.00" departDelay="0.00" arrival="108.00" arrivalLane="53i_0" arrivalPos="10.00" arrivalSpeed="9.42" duration="102.00" routeLength="1013.10" waitingTime="0.00" waitingCount="0" stopTime="0.00" timeLoss="15.37" rerouteNo="0" devices="tripinfo_down_5" vType="typeNS@down_5" speedFactor="0.83" vaporized=""/>
    <tripinfo id="right_8" depart="11.00" departLane="51o_0" departPos="5.10" departSpeed="0.00" departDelay="0.00" arrival="108.00" arrivalLane="52i_0" arrivalPos="10.00" arrivalSpeed="10.71" duration="97.00" routeLength="1015.10" waitingTime="0.00" waitingCount="0" stopTime="0.00" timeLoss="17.84" rerouteNo="0" devices="tripinfo_right_8" vType="typeWE@right_8" speedFactor="0.94" vaporized=""/>
    <tripinfo id="right_10" depart="22.00" departLane="51o_0" departPos="5.10" departSpeed="0.00" departDelay="0.00" arrival="109.00" arrivalLane="52i_0" arrivalPos="10.00" arrivalSpeed="12.09" duration="87.00" routeLength="1015.10" waitingTime="0.00" waitingCount="0" stopTime="0.00" timeLoss="14.75" rerouteNo="0" devices="tripinfo_right_10" vType="typeWE@right_10" speedFactor="1.09" vaporized=""/>
    <tripinfo id="down_12" depart="23.00" departLane="54o_0" departPos="7.10" departSpeed="0.00" departDelay="0.00" arrival="110.00" arrivalLane="53i_0" arrivalPos="10.00" arrivalSpeed="11.97" duration="87.00" routeLength="1013.10" waitingTime="0.00" waitingCount="0" stopTime="0.00" timeLoss="17.88" rerouteNo="0" devices="tripinfo_down_12" vType="typeNS@down_12" speedFactor="1.05" vaporized=""/>
    <tripinfo id="left_11" depart="22.00" departLane="52o_0" departPos="5.10" departSpeed="0.00" departDelay="0.00" arrival="113.00" arrivalLane="51i_0" arrivalPos="10.00" arrivalSpeed="11.70" duration="91.00" routeLength="1015.10" waitingTime="0.00" waitingCount="0" stopTime="0.00" timeLoss="15.75" rerouteNo="0" devices="tripinfo_left_11" vType="typeWE@left_11" speedFactor="1.03" vaporized=""/>
    <tripinfo id="right_13" depart="27.00" departLane="51o_0" departPos="5.10" departSpeed="0.00" departDelay="2.00" arrival="113.00" arrivalLane="52i_0" arrivalPos="10.00" arrivalSpeed="12.66" duration="86.00" routeLength="1015.10" waitingTime="0.00" waitingCount="0" stopTime="0.00" timeLoss="14.57" rerouteNo="0" devices="tripinfo_right_13" vType="typeWE@right_13" speedFactor="1.12" vaporized=""/>
    <tripinfo id="up_9" depart="19.00" departLane="53o_0" departPos="7.10" departSpeed="0.00" departDelay="3.00" arrival="118.00" arrivalLane="54i_0" arrivalPos="10.00" arrivalSpeed="9.91" duration="99.00" routeLength="1013.10" waitingTime="0.00" waitingCount="0" stopTime="0.00" timeLoss="15.28" rerouteNo="0" devices="tripinfo_up_9" vType="typeNS@up_9" speedFactor="0.86" vaporized=""/>
    <tripinfo id="right_14" depart="32.00" departLane="51o_0" departPos="5.10" departSpeed="0.00" departDelay="1.00" arrival="124.00" arrivalLane="52i_0" arrivalPos="10.00" arrivalSpeed="11.59" duration="92.00" routeLength="1015.10" waitingTime="0.00" waitingCount="0" stopTime="0.00" timeLoss="15.05" rerouteNo="0" devices="tripinfo_right_14" vType="typeWE@right_14" speedFactor="0.99" vaporized=""/>
    <tripinfo id="down_15" depart="31.00" departLane="54o_0" departPos="7.10" departSpeed="0.00" departDelay="0.00" arrival="124.00" arrivalLane="53i_0" arrivalPos="10.00" arrivalSpeed="10.52" duration="93.00" routeLength="1013.10" waitingTime="0.00" waitingCount="0" stopTime="0.00" timeLoss="15.80" rerouteNo="0" devices="tripinfo_down_15" vType="typeNS@down_15" speedFactor="0.93" vaporized=""/>
    <tripinfo id="down_17" depart="37.00" departLane="54o_0" departPos="7.10" departSpeed="0.00" departDelay="4.00" arrival="130.00" arrivalLane="53i_0" arrivalPos="10.00" arrivalSpeed="10.79" duration="93.00" routeLength="1013.10" waitingTime="0.00" waitingCount="0" stopTime="0.00" timeLoss="16.88" rerouteNo="0" devices="tripinfo_down_17" vType="typeNS@down_17" speedFactor="0.94" vaporized=""/>
    <tripinfo id="left_20" depart="41.00" departLane="52o_0" departPos="5.10" departSpeed="0.00" departDelay="0.00" arrival="131.00" arrivalLane="51i_0" arrivalPos="10.00" arrivalSpeed="11.80" duration="90.00" routeLength="1015.10" waitingTime="0.00" waitingCount="0" stopTime="0.00" timeLoss="14.88" rerouteNo="0" devices="tripinfo_left_20" vType="typeWE@left_20" speedFactor="1.02" vaporized=""/>
    <tripinfo id="right_18" depart="37.00" departLane="51o_0" departPos="5.10" departSpeed="0.00" departDelay="3.00" arrival="132.00" arrivalLane="52i_0" arrivalPos="10.00" arrivalSpeed="10.76" duration="95.00" routeLength="1015.10" waitingTime="0.00" waitingCount="0" stopTime="0.00" timeLoss="15.91" rerouteNo="0" devices="tripinfo_right_18" vType="typeWE@right_18" speedFactor="0.94" vaporized=""/>
    <tripinfo id="up_16" depart="32.00" departLane="53o_0" departPos="7.10" departSpeed="0.00" departDelay="0.00" arrival="133.00" arrivalLane="54i_0" arrivalPos="10.00" arrivalSpeed="9.94" duration="101.00" routeLength="1013.10" waitingTime="0.00" waitingCount="0" stopTime="0.00" timeLoss="19.70" rerouteNo="0" devices="tripinfo_up_16" vType="typeNS@up_16" speedFactor="0.88" vaporized=""/>
    <tripinfo id="right_19" depart="42.00" departLane="51o_0" departPos="5.10" departSpeed="0.00" departDelay="2.00" arrival="133.00" arrivalLane="52i_0" arrivalPos="10.00" arrivalSpeed="10.55" duration="91.00" routeLength="1015.10" waitingTime="0.00" waitingCount="0" stopTime="0.00" timeLoss="20.97" rerouteNo="0" devices="tripinfo_right_19" vType="typeWE@right_19" speedFactor="1.16" vaporized=""/>
    <tripinfo id="up_22" depart="45.00" departLane="53o_0" departPos="7.10" departSpeed="0.00" departDelay="0.00" arrival="136.00" arrivalLane="54i_0" arrivalPos="10.00" arrivalSpeed="11.06" duration="91.00" routeLength="1013.10" waitingTime="0.00" waitingCount="0" stopTime="0.00" timeLoss="17.68" rerouteNo="0" devices="tripinfo_up_22" vType="typeNS@up_22" speedFactor="0.97" vaporized=""/>
    <tripinfo id="right_21" depart="47.00" departLane="51o_0" departPos="5.10" departSpeed="0.00" departDelay="3.00" arrival="138.00" arrivalLane="52i_0" arrivalPos="10.00" arrivalSpeed="11.56" duration="91.00" routeLength="1015.10" waitingTime="0.00" waitingCount="0" stopTime="0.00" timeLoss="15.21" rerouteNo="0" devices="tripinfo_right_21" vType="typeWE@right_21" speedFactor="1.01" vaporized=""/>
    <tripinfo id="left_23" depart="49.00" departLane="52o_0" departPos="5.10" departSpeed="0.00" departDelay="0.00" arrival="145.00" arrivalLane="51i_0" arrivalPos="10.00" arrivalSpeed="10.34" duration="96.00" routeLength="1015.10" waitingTime="0.00" waitingCount="0" stopTime="0.00" timeLoss="14.44" rerouteNo="0" devices="tripinfo_left_23" vType="typeWE@left_23" speedFactor="0.89" vaporized=""/>
    <tripinfo id="up_24" depart="51.00" departLane="53o_0" departPos="7.10" departSpeed="0.00" departDelay="0.00" arrival="153.00" arrivalLane="54i_0" arrivalPos="10.00" arrivalSpeed="9.43" duration="102.00" routeLength="1013.10" waitingTime="0.00" waitingCount="0" stopTime="0.00" timeLoss="15.16" rerouteNo="0" devices="tripinfo_up_24" vType="typeNS@up_24" speedFactor="0.83" vaporized=""/>
</tripinfos>
