<?xml version="1.0" encoding="UTF-8"?>

<!-- generated on 2024-11-22 23:47:10 by Eclipse SUMO GUI Version 1.15.0
<configuration xmlns:xsi="http://www.w3.org/2001/XMLSchema-instance" xsi:noNamespaceSchemaLocation="http://sumo.dlr.de/xsd/sumoConfiguration.xsd">

    <input>
        <net-file value="data/cross.net.xml"/>
        <route-files value="data/cross.rou.xml"/>
        <additional-files value="data/cross.det.xml"/>
    </input>

    <output>
        <tripinfo-output value="tripinfo.xml"/>
    </output>

    <time>
        <begin value="0"/>
        <step-length value="1.0"/>
    </time>

    <processing>
        <collision.action value="warn"/>
    </processing>

    <report>
        <verbose value="true"/>
        <no-step-log value="true"/>
    </report>

    <traci_server>
        <remote-port value="36899"/>
    </traci_server>

</configuration>
-->

<tripinfos xmlns:xsi="http://www.w3.org/2001/XMLSchema-instance" xsi:noNamespaceSchemaLocation="http://sumo.dlr.de/xsd/tripinfo_file.xsd">
    <tripinfo id="up_1" depart="1.00" departLane="53o_0" departPos="7.10" departSpeed="0.00" departDelay="0.00" arrival="98.00" arrivalLane="54i_0" arrivalPos="10.00" arrivalSpeed="10.69" duration="97.00" routeLength="1013.10" waitingTime="0.00" waitingCount="0" stopTime="0.00" timeLoss="20.67" rerouteNo="0" devices="tripinfo_up_1" vType="typeNS@up_1" speedFactor="0.94" vaporized=""/>
    <tripinfo id="up_4" depart="7.00" departLane="53o_0" departPos="7.10" departSpeed="0.00" departDelay="3.00" arrival="99.00" arrivalLane="54i_0" arrivalPos="10.00" arrivalSpeed="11.02" duration="92.00" routeLength="1013.10" waitingTime="0.00" waitingCount="0" stopTime="0.00" timeLoss="22.64" rerouteNo="0" devices="tripinfo_up_4" vType="typeNS@up_4" speedFactor="1.03" vaporized=""/>
    <tripinfo id="up_6" depart="13.00" departLane="53o_0" departPos="7.10" departSpeed="0.00" departDelay="7.00" arrival="104.00" arrivalLane="54i_0" arrivalPos="10.00" arrivalSpeed="12.03" duration="91.00" routeLength="1013.10" waitingTime="0.00" waitingCount="0" stopTime="0.00" timeLoss="22.81" rerouteNo="0" devices="tripinfo_up_6" vType="typeNS@up_6" speedFactor="1.05" vaporized=""/>
    <tripinfo id="down_5" depart="6.00" departLane="54o_0" departPos="7.10" departSpeed="0.00" departDelay="0.00" arrival="109.00" arrivalLane="53i_0" arrivalPos="10.00" arrivalSpeed="9.67" duration="103.00" routeLength="1013.10" waitingTime="0.00" waitingCount="0" stopTime="0.00" timeLoss="16.78" rerouteNo="0" devices="tripinfo_down_5" vType="typeNS@down_5" speedFactor="0.83" vaporized=""/>
    <tripinfo id="down_12" depart="23.00" departLane="54o_0" departPos="7.10" departSpeed="0.00" departDelay="0.00" arrival="112.00" arrivalLane="53i_0" arrivalPos="10.00" arrivalSpeed="11.25" duration="89.00" routeLength="1013.10" waitingTime="0.00" waitingCount="0" stopTime="0.00" timeLoss="20.63" rerouteNo="0" devices="tripinfo_down_12" vType="typeNS@down_12" speedFactor="1.05" vaporized=""/>
    <tripinfo id="up_9" depart="19.00" departLane="53o_0" departPos="7.10" departSpeed="0.00" departDelay="3.00" arrival="119.00" arrivalLane="54i_0" arrivalPos="10.00" arrivalSpeed="9.53" duration="100.00" routeLength="1013.10" waitingTime="0.00" waitingCount="0" stopTime="0.00" timeLoss="16.62" rerouteNo="0" devices="tripinfo_up_9" vType="typeNS@up_9" speedFactor="0.86" vaporized=""/>
    <tripinfo id="down_15" depart="31.00" departLane="54o_0" departPos="7.10" departSpeed="0.00" departDelay="0.00" arrival="127.00" arrivalLane="53i_0" arrivalPos="10.00" arrivalSpeed="10.62" duration="96.00" routeLength="1013.10" waitingTime="0.00" waitingCount="0" stopTime="0.00" timeLoss="18.59" rerouteNo="0" devices="tripinfo_down_15" vType="typeNS@down_15" speedFactor="0.93" vaporized=""/>
    <tripinfo id="up_16" depart="32.00" departLane="53o_0" departPos="7.10" departSpeed="0.00" departDelay="0.00" arrival="131.00" arrivalLane="54i_0" arrivalPos="10.00" arrivalSpeed="10.17" duration="99.00" routeLength="1013.10" waitingTime="0.00" waitingCount="0" stopTime="0.00" timeLoss="17.60" rerouteNo="0" devices="tripinfo_up_16" vType="typeNS@up_16" speedFactor="0.88" vaporized=""/>
    <tripinfo id="down_17" depart="37.00" departLane="54o_0" departPos="7.10" departSpeed="0.00" departDelay="4.00" arrival="133.00" arrivalLane="53i_0" arrivalPos="10.00" arrivalSpeed="10.86" duration="96.00" routeLength="1013.10" waitingTime="0.00" waitingCount="0" stopTime="0.00" timeLoss="19.84" rerouteNo="0" devices="tripinfo_down_17" vType="typeNS@down_17" speedFactor="0.94" vaporized=""/>
    <tripinfo id="up_22" depart="45.00" departLane="53o_0" departPos="7.10" departSpeed="0.00" departDelay="0.00" arrival="138.00" arrivalLane="54i_0" arrivalPos="10.00" arrivalSpeed="10.99" duration="93.00" routeLength="1013.10" waitingTime="0.00" waitingCount="0" stopTime="0.00" timeLoss="19.71" rerouteNo="0" devices="tripinfo_up_22" vType="typeNS@up_22" speedFactor="0.97" vaporized=""/>
    <tripinfo id="down_26" depart="57.00" departLane="54o_0" departPos="7.10" departSpeed="0.00" departDelay="0.00" arrival="154.00" arrivalLane="53i_0" arrivalPos="10.00" arrivalSpeed="10.78" duration="97.00" routeLength="1013.10" waitingTime="0.00" waitingCount="0" stopTime="0.00" timeLoss="18.75" rerouteNo="0" devices="tripinfo_down_26" vType="typeNS@down_26" speedFactor="0.92" vaporized=""/>
    <tripinfo id="up_24" depart="51.00" departLane="53o_0" departPos="7.10" departSpeed="0.00" departDelay="0.00" arrival="155.00" arrivalLane="54i_0" arrivalPos="10.00" arrivalSpeed="9.45" duration="104.00" routeLength="1013.10" waitingTime="0.00" waitingCount="0" stopTime="0.00" timeLoss="17.67" rerouteNo="0" devices="tripinfo_up_24" vType="typeNS@up_24" speedFactor="0.83" vaporized=""/>
    <tripinfo id="left_0" depart="0.00" departLane="52o_0" departPos="5.10" departSpeed="0.00" departDelay="0.00" arrival="156.00" arrivalLane="51i_0" arrivalPos="10.00" arrivalSpeed="12.03" duration="156.00" routeLength="1015.10" waitingTime="57.00" waitingCount="1" stopTime="0.00" timeLoss="82.15" rerouteNo="0" devices="tripinfo_left_0" vType="typeWE@left_0" speedFactor="1.06" vaporized=""/>
    <tripinfo id="right_3" depart="3.00" departLane="51o_0" departPos="5.10" departSpeed="0.00" departDelay="0.00" arrival="156.00" arrivalLane="52i_0" arrivalPos="10.00" arrivalSpeed="12.07" duration="153.00" routeLength="1015.10" waitingTime="52.00" waitingCount="1" stopTime="0.00" timeLoss="80.13" rerouteNo="0" devices="tripinfo_right_3" vType="typeWE@right_3" speedFactor="1.08" vaporized=""/>
    <tripinfo id="up_30" depart="71.00" departLane="53o_0" departPos="7.10" departSpeed="0.00" departDelay="0.00" arrival="157.00" arrivalLane="54i_0" arrivalPos="10.00" arrivalSpeed="10.71" duration="86.00" routeLength="1013.10" waitingTime="0.00" waitingCount="0" stopTime="0.00" timeLoss="25.01" rerouteNo="0" devices="tripinfo_up_30" vType="typeNS@up_30" speedFactor="1.18" vaporized=""/>
    <tripinfo id="down_31" depart="72.00" departLane="54o_0" departPos="7.10" departSpeed="0.00" departDelay="0.00" arrival="157.00" arrivalLane="53i_0" arrivalPos="10.00" arrivalSpeed="12.87" duration="85.00" routeLength="1013.10" waitingTime="0.00" waitingCount="0" stopTime="0.00" timeLoss="23.26" rerouteNo="0" devices="tripinfo_down_31" vType="typeNS@down_31" speedFactor="1.15" vaporized=""/>
    <tripinfo id="right_8" depart="11.00" departLane="51o_0" departPos="5.10" departSpeed="0.00" departDelay="0.00" arrival="164.00" arrivalLane="52i_0" arrivalPos="10.00" arrivalSpeed="10.44" duration="153.00" routeLength="1015.10" waitingTime="48.00" waitingCount="1" stopTime="0.00" timeLoss="73.71" rerouteNo="0" devices="tripinfo_right_8" vType="typeWE@right_8" speedFactor="0.94" vaporized=""/>
    <tripinfo id="down_33" depart="78.00" departLane="54o_0" departPos="7.10" departSpeed="0.00" departDelay="4.00" arrival="165.00" arrivalLane="53i_0" arrivalPos="10.00" arrivalSpeed="13.32" duration="87.00" routeLength="1013.10" waitingTime="0.00" waitingCount="0" stopTime="0.00" timeLoss="25.44" rerouteNo="0" devices="tripinfo_down_33" vType="typeNS@down_33" speedFactor="1.17" vaporized=""/>
    <tripinfo id="down_35" depart="85.00" departLane="54o_0" departPos="7.10" departSpeed="0.00" departDelay="0.00" arrival="178.00" arrivalLane="53i_0" arrivalPos="10.00" arrivalSpeed="12.06" duration="93.00" routeLength="1013.10" waitingTime="0.00" waitingCount="0" stopTime="0.00" timeLoss="22.73" rerouteNo="0" devices="tripinfo_down_35" vType="typeNS@down_35" speedFactor="1.02" vaporized=""/>
    <tripinfo id="up_37" depart="93.00" departLane="53o_0" departPos="7.10" departSpeed="0.00" departDelay="0.00" arrival="178.00" arrivalLane="54i_0" arrivalPos="10.00" arrivalSpeed="13.00" duration="85.00" routeLength="1013.10" waitingTime="0.00" waitingCount="0" stopTime="0.00" timeLoss="24.23" rerouteNo="0" devices="tripinfo_up_37" vType="typeNS@up_37" speedFactor="1.18" vaporized=""/>
    <tripinfo id="down_38" depart="98.00" departLane="54o_0" departPos="7.10" departSpeed="0.00" departDelay="0.00" arrival="184.00" arrivalLane="53i_0" arrivalPos="10.00" arrivalSpeed="12.66" duration="86.00" routeLength="1013.10" waitingTime="0.00" waitingCount="0" stopTime="0.00" timeLoss="21.14" rerouteNo="0" devices="tripinfo_down_38" vType="typeNS@down_38" speedFactor="1.10" vaporized=""/>
    <tripinfo id="up_40" depart="103.00" departLane="53o_0" departPos="7.10" departSpeed="0.00" departDelay="0.00" arrival="195.00" arrivalLane="54i_0" arrivalPos="10.00" arrivalSpeed="11.69" duration="92.00" routeLength="1013.10" waitingTime="0.00" waitingCount="0" stopTime="0.00" timeLoss="22.13" rerouteNo="0" devices="tripinfo_up_40" vType="typeNS@up_40" speedFactor="1.03" vaporized=""/>
    <tripinfo id="down_39" depart="104.00" departLane="54o_0" departPos="7.10" departSpeed="0.00" departDelay="3.00" arrival="201.00" arrivalLane="53i_0" arrivalPos="10.00" arrivalSpeed="10.45" duration="97.00" routeLength="1013.10" waitingTime="0.00" waitingCount="0" stopTime="0.00" timeLoss="17.88" rerouteNo="0" devices="tripinfo_down_39" vType="typeNS@down_39" speedFactor="0.90" vaporized=""/>
    <tripinfo id="up_41" depart="109.00" departLane="53o_0" departPos="7.10" departSpeed="0.00" departDelay="5.00" arrival="203.00" arrivalLane="54i_0" arrivalPos="10.00" arrivalSpeed="11.03" duration="94.00" routeLength="1013.10" waitingTime="0.00" waitingCount="0" stopTime="0.00" timeLoss="18.64" rerouteNo="0" devices="tripinfo_up_41" vType="typeNS@up_41" speedFactor="0.96" vaporized=""/>
    <tripinfo id="up_42" depart="115.00" departLane="53o_0" departPos="7.10" departSpeed="0.00" departDelay="9.00" arrival="205.00" arrivalLane="54i_0" arrivalPos="10.00" arrivalSpeed="12.08" duration="90.00" routeLength="1013.10" waitingTime="0.00" waitingCount="0" stopTime="0.00" timeLoss="24.39" rerouteNo="0" devices="tripinfo_up_42" vType="typeNS@up_42" speedFactor="1.09" vaporized=""/>
    <tripinfo id="up_43" depart="121.00" departLane="53o_0" departPos="7.10" departSpeed="0.00" departDelay="13.00" arrival="211.00" arrivalLane="54i_0" arrivalPos="10.00" arrivalSpeed="12.05" duration="90.00" routeLength="1013.10" waitingTime="0.00" waitingCount="0" stopTime="0.00" timeLoss="21.17" rerouteNo="0" devices="tripinfo_up_43" vType="typeNS@up_43" speedFactor="1.04" vaporized=""/>
    <tripinfo id="down_52" depart="129.00" departLane="54o_0" departPos="7.10" departSpeed="0.00" departDelay="0.00" arrival="220.00" arrivalLane="53i_0" arrivalPos="10.00" arrivalSpeed="11.75" duration="91.00" routeLength="1013.10" waitingTime="0.00" waitingCount="0" stopTime="0.00" timeLoss="20.28" rerouteNo="0" devices="tripinfo_down_52" vType="typeNS@down_52" speedFactor="1.02" vaporized=""/>
    <tripinfo id="up_54" depart="135.00" departLane="53o_0" departPos="7.10" departSpeed="0.00" departDelay="0.00" arrival="225.00" arrivalLane="54i_0" arrivalPos="10.00" arrivalSpeed="11.25" duration="90.00" routeLength="1013.10" waitingTime="0.00" waitingCount="0" stopTime="0.00" timeLoss="18.74" rerouteNo="0" devices="tripinfo_up_54" vType="typeNS@up_54" speedFactor="1.00" vaporized=""/>
    <tripinfo id="right_10" depart="22.00" departLane="51o_0" departPos="5.10" departSpeed="0.00" departDelay="0.00" arrival="231.00" arrivalLane="52i_0" arrivalPos="10.00" arrivalSpeed="12.32" duration="209.00" routeLength="1015.10" waitingTime="105.00" waitingCount="2" stopTime="0.00" timeLoss="136.79" rerouteNo="0" devices="tripinfo_right_10" vType="typeWE@right_10" speedFactor="1.09" vaporized=""/>
    <tripinfo id="right_13" depart="27.00" departLane="51o_0" departPos="5.10" departSpeed="0.00" departDelay="2.00" arrival="232.00" arrivalLane="52i_0" arrivalPos="10.00" arrivalSpeed="12.41" duration="205.00" routeLength="1015.10" waitingTime="104.00" waitingCount="2" stopTime="0.00" timeLoss="133.95" rerouteNo="0" devices="tripinfo_right_13" vType="typeWE@right_13" speedFactor="1.12" vaporized=""/>
    <tripinfo id="left_2" depart="5.00" departLane="52o_0" departPos="5.10" departSpeed="0.00" departDelay="3.00" arrival="234.00" arrivalLane="51i_0" arrivalPos="10.00" arrivalSpeed="11.60" duration="229.00" routeLength="1015.10" waitingTime="125.00" waitingCount="2" stopTime="0.00" timeLoss="153.64" rerouteNo="0" devices="tripinfo_left_2" vType="typeWE@left_2" speedFactor="1.01" vaporized=""/>
    <tripinfo id="down_58" depart="149.00" departLane="54o_0" departPos="7.10" departSpeed="0.00" departDelay="0.00" arrival="240.00" arrivalLane="53i_0" arrivalPos="10.00" arrivalSpeed="11.83" duration="91.00" routeLength="1013.10" waitingTime="0.00" waitingCount="0" stopTime="0.00" timeLoss="21.03" rerouteNo="0" devices="tripinfo_down_58" vType="typeNS@down_58" speedFactor="1.02" vaporized=""/>
    <tripinfo id="left_7" depart="10.00" departLane="52o_0" departPos="5.10" departSpeed="0.00" departDelay="0.00" arrival="242.00" arrivalLane="51i_0" arrivalPos="10.00" arrivalSpeed="10.08" duration="232.00" routeLength="1015.10" waitingTime="123.00" waitingCount="2" stopTime="0.00" timeLoss="149.86" rerouteNo="0" devices="tripinfo_left_7" vType="typeWE@left_7" speedFactor="0.89" vaporized=""/>
    <tripinfo id="up_56" depart="145.00" departLane="53o_0" departPos="7.10" departSpeed="0.00" departDelay="0.00" arrival="243.00" arrivalLane="54i_0" arrivalPos="10.00" arrivalSpeed="10.59" duration="98.00" routeLength="1013.10" waitingTime="0.00" waitingCount="0" stopTime="0.00" timeLoss="17.82" rerouteNo="0" devices="tripinfo_up_56" vType="typeNS@up_56" speedFactor="0.90" vaporized=""/>
    <tripinfo id="left_11" depart="22.00" departLane="52o_0" departPos="5.10" departSpeed="0.00" departDelay="0.00" arrival="249.00" arrivalLane="51i_0" arrivalPos="10.00" arrivalSpeed="11.98" duration="227.00" routeLength="1015.10" waitingTime="118.00" waitingCount="3" stopTime="0.00" timeLoss="152.39" rerouteNo="0" devices="tripinfo_left_11" vType="typeWE@left_11" speedFactor="1.03" vaporized=""/>
    <tripinfo id="right_14" depart="32.00" departLane="51o_0" departPos="5.10" departSpeed="0.00" departDelay="1.00" arrival="252.00" arrivalLane="52i_0" arrivalPos="10.00" arrivalSpeed="11.71" duration="220.00" routeLength="1015.10" waitingTime="109.00" waitingCount="3" stopTime="0.00" timeLoss="143.68" rerouteNo="0" devices="tripinfo_right_14" vType="typeWE@right_14" speedFactor="0.99" vaporized=""/>
    <tripinfo id="up_62" depart="162.00" departLane="53o_0" departPos="7.10" departSpeed="0.00" departDelay="0.00" arrival="252.00" arrivalLane="54i_0" arrivalPos="10.00" arrivalSpeed="11.85" duration="90.00" routeLength="1013.10" waitingTime="0.00" waitingCount="0" stopTime="0.00" timeLoss="19.09" rerouteNo="0" devices="tripinfo_up_62" vType="typeNS@up_62" speedFactor="1.02" vaporized=""/>
    <tripinfo id="down_64" depart="164.00" departLane="54o_0" departPos="7.10" departSpeed="0.00" departDelay="0.00" arrival="259.00" arrivalLane="53i_0" arrivalPos="10.00" arrivalSpeed="10.96" duration="95.00" routeLength="1013.10" waitingTime="0.00" waitingCount="0" stopTime="0.00" timeLoss="18.68" rerouteNo="0" devices="tripinfo_down_64" vType="typeNS@down_64" speedFactor="0.94" vaporized=""/>
</tripinfos>
