<?xml version="1.0" encoding="UTF-8"?>

<!-- generated on 2024-11-20 18:44:47 by Eclipse SUMO GUI Version 1.21.0
<sumoConfiguration xmlns:xsi="http://www.w3.org/2001/XMLSchema-instance" xsi:noNamespaceSchemaLocation="http://sumo.dlr.de/xsd/sumoConfiguration.xsd">

    <input>
        <net-file value="data/cross.net.xml"/>
        <route-files value="data/cross.rou.xml"/>
        <additional-files value="data/cross.det.xml"/>
    </input>

    <output>
        <tripinfo-output value="tripinfo.xml"/>
    </output>

    <time>
        <begin value="0"/>
    </time>

    <report>
        <verbose value="true"/>
        <no-step-log value="true"/>
    </report>

    <traci_server>
        <remote-port value="51917"/>
    </traci_server>

</sumoConfiguration>
-->

<tripinfos xmlns:xsi="http://www.w3.org/2001/XMLSchema-instance" xsi:noNamespaceSchemaLocation="http://sumo.dlr.de/xsd/tripinfo_file.xsd">
    <tripinfo id="up_1" depart="1.00" departLane="53o_0" departPos="7.10" departSpeed="0.00" departDelay="0.00" arrival="94.00" arrivalLane="54i_0" arrivalPos="10.00" arrivalSpeed="10.83" duration="93.00" routeLength="1013.10" waitingTime="0.00" waitingCount="0" stopTime="0.00" timeLoss="16.84" rerouteNo="0" devices="tripinfo_up_1" vType="typeNS" speedFactor="0.94" vaporized=""/>
    <tripinfo id="up_4" depart="7.00" departLane="53o_0" departPos="7.10" departSpeed="0.00" departDelay="3.00" arrival="96.00" arrivalLane="54i_0" arrivalPos="10.00" arrivalSpeed="11.80" duration="89.00" routeLength="1013.10" waitingTime="0.00" waitingCount="0" stopTime="0.00" timeLoss="19.83" rerouteNo="0" devices="tripinfo_up_4" vType="typeNS" speedFactor="1.03" vaporized=""/>
    <tripinfo id="up_6" depart="13.00" departLane="53o_0" departPos="7.10" departSpeed="0.00" departDelay="7.00" arrival="100.00" arrivalLane="54i_0" arrivalPos="10.00" arrivalSpeed="11.90" duration="87.00" routeLength="1013.10" waitingTime="0.00" waitingCount="0" stopTime="0.00" timeLoss="18.29" rerouteNo="0" devices="tripinfo_up_6" vType="typeNS" speedFactor="1.05" vaporized=""/>
    <tripinfo id="down_5" depart="6.00" departLane="54o_0" departPos="7.10" departSpeed="0.00" departDelay="0.00" arrival="108.00" arrivalLane="53i_0" arrivalPos="10.00" arrivalSpeed="9.71" duration="102.00" routeLength="1013.10" waitingTime="0.00" waitingCount="0" stopTime="0.00" timeLoss="15.37" rerouteNo="0" devices="tripinfo_down_5" vType="typeNS" speedFactor="0.83" vaporized=""/>
    <tripinfo id="down_12" depart="23.00" departLane="54o_0" departPos="7.10" departSpeed="0.00" departDelay="0.00" arrival="110.00" arrivalLane="53i_0" arrivalPos="10.00" arrivalSpeed="11.40" duration="87.00" routeLength="1013.10" waitingTime="0.00" waitingCount="0" stopTime="0.00" timeLoss="18.16" rerouteNo="0" devices="tripinfo_down_12" vType="typeNS" speedFactor="1.05" vaporized=""/>
    <tripinfo id="up_9" depart="19.00" departLane="53o_0" departPos="7.10" departSpeed="0.00" departDelay="3.00" arrival="118.00" arrivalLane="54i_0" arrivalPos="10.00" arrivalSpeed="9.86" duration="99.00" routeLength="1013.10" waitingTime="0.00" waitingCount="0" stopTime="0.00" timeLoss="15.32" rerouteNo="0" devices="tripinfo_up_9" vType="typeNS" speedFactor="0.86" vaporized=""/>
    <tripinfo id="down_15" depart="31.00" departLane="54o_0" departPos="7.10" departSpeed="0.00" departDelay="0.00" arrival="124.00" arrivalLane="53i_0" arrivalPos="10.00" arrivalSpeed="10.55" duration="93.00" routeLength="1013.10" waitingTime="0.00" waitingCount="0" stopTime="0.00" timeLoss="15.70" rerouteNo="0" devices="tripinfo_down_15" vType="typeNS" speedFactor="0.93" vaporized=""/>
    <tripinfo id="up_16" depart="32.00" departLane="53o_0" departPos="7.10" departSpeed="0.00" departDelay="0.00" arrival="130.00" arrivalLane="54i_0" arrivalPos="10.00" arrivalSpeed="10.07" duration="98.00" routeLength="1013.10" waitingTime="0.00" waitingCount="0" stopTime="0.00" timeLoss="16.38" rerouteNo="0" devices="tripinfo_up_16" vType="typeNS" speedFactor="0.88" vaporized=""/>
    <tripinfo id="down_17" depart="37.00" departLane="54o_0" departPos="7.10" departSpeed="0.00" departDelay="4.00" arrival="130.00" arrivalLane="53i_0" arrivalPos="10.00" arrivalSpeed="11.03" duration="93.00" routeLength="1013.10" waitingTime="0.00" waitingCount="0" stopTime="0.00" timeLoss="16.87" rerouteNo="0" devices="tripinfo_down_17" vType="typeNS" speedFactor="0.94" vaporized=""/>
    <tripinfo id="up_22" depart="45.00" departLane="53o_0" departPos="7.10" departSpeed="0.00" departDelay="0.00" arrival="136.00" arrivalLane="54i_0" arrivalPos="10.00" arrivalSpeed="11.18" duration="91.00" routeLength="1013.10" waitingTime="0.00" waitingCount="0" stopTime="0.00" timeLoss="17.79" rerouteNo="0" devices="tripinfo_up_22" vType="typeNS" speedFactor="0.97" vaporized=""/>
    <tripinfo id="down_26" depart="57.00" departLane="54o_0" departPos="7.10" departSpeed="0.00" departDelay="0.00" arrival="152.00" arrivalLane="53i_0" arrivalPos="10.00" arrivalSpeed="10.30" duration="95.00" routeLength="1013.10" waitingTime="0.00" waitingCount="0" stopTime="0.00" timeLoss="17.18" rerouteNo="0" devices="tripinfo_down_26" vType="typeNS" speedFactor="0.92" vaporized=""/>
    <tripinfo id="up_24" depart="51.00" departLane="53o_0" departPos="7.10" departSpeed="0.00" departDelay="0.00" arrival="153.00" arrivalLane="54i_0" arrivalPos="10.00" arrivalSpeed="9.66" duration="102.00" routeLength="1013.10" waitingTime="0.00" waitingCount="0" stopTime="0.00" timeLoss="15.24" rerouteNo="0" devices="tripinfo_up_24" vType="typeNS" speedFactor="0.83" vaporized=""/>
    <tripinfo id="down_31" depart="72.00" departLane="54o_0" departPos="7.10" departSpeed="0.00" departDelay="0.00" arrival="154.00" arrivalLane="53i_0" arrivalPos="10.00" arrivalSpeed="11.70" duration="82.00" routeLength="1013.10" waitingTime="0.00" waitingCount="0" stopTime="0.00" timeLoss="20.13" rerouteNo="0" devices="tripinfo_down_31" vType="typeNS" speedFactor="1.15" vaporized=""/>
    <tripinfo id="up_30" depart="71.00" departLane="53o_0" departPos="7.10" departSpeed="0.00" departDelay="0.00" arrival="155.00" arrivalLane="54i_0" arrivalPos="10.00" arrivalSpeed="10.75" duration="84.00" routeLength="1013.10" waitingTime="0.00" waitingCount="0" stopTime="0.00" timeLoss="23.02" rerouteNo="0" devices="tripinfo_up_30" vType="typeNS" speedFactor="1.18" vaporized=""/>
    <tripinfo id="down_33" depart="78.00" departLane="54o_0" departPos="7.10" departSpeed="0.00" departDelay="4.00" arrival="159.00" arrivalLane="53i_0" arrivalPos="10.00" arrivalSpeed="12.99" duration="81.00" routeLength="1013.10" waitingTime="0.00" waitingCount="0" stopTime="0.00" timeLoss="19.71" rerouteNo="0" devices="tripinfo_down_33" vType="typeNS" speedFactor="1.17" vaporized=""/>
    <tripinfo id="up_37" depart="93.00" departLane="53o_0" departPos="7.10" departSpeed="0.00" departDelay="0.00" arrival="174.00" arrivalLane="54i_0" arrivalPos="10.00" arrivalSpeed="12.75" duration="81.00" routeLength="1013.10" waitingTime="0.00" waitingCount="0" stopTime="0.00" timeLoss="20.24" rerouteNo="0" devices="tripinfo_up_37" vType="typeNS" speedFactor="1.18" vaporized=""/>
    <tripinfo id="down_35" depart="85.00" departLane="54o_0" departPos="7.10" departSpeed="0.00" departDelay="0.00" arrival="175.00" arrivalLane="53i_0" arrivalPos="10.00" arrivalSpeed="11.95" duration="90.00" routeLength="1013.10" waitingTime="0.00" waitingCount="0" stopTime="0.00" timeLoss="19.56" rerouteNo="0" devices="tripinfo_down_35" vType="typeNS" speedFactor="1.02" vaporized=""/>
    <tripinfo id="down_38" depart="100.00" departLane="54o_0" departPos="7.10" departSpeed="0.00" departDelay="2.00" arrival="182.00" arrivalLane="53i_0" arrivalPos="10.00" arrivalSpeed="11.88" duration="82.00" routeLength="1013.10" waitingTime="0.00" waitingCount="0" stopTime="0.00" timeLoss="17.12" rerouteNo="0" devices="tripinfo_down_38" vType="typeNS" speedFactor="1.10" vaporized=""/>
    <tripinfo id="up_40" depart="103.00" departLane="53o_0" departPos="7.10" departSpeed="0.00" departDelay="0.00" arrival="191.00" arrivalLane="54i_0" arrivalPos="10.00" arrivalSpeed="11.83" duration="88.00" routeLength="1013.10" waitingTime="0.00" waitingCount="0" stopTime="0.00" timeLoss="18.12" rerouteNo="0" devices="tripinfo_up_40" vType="typeNS" speedFactor="1.03" vaporized=""/>
    <tripinfo id="down_39" depart="105.00" departLane="54o_0" departPos="7.10" departSpeed="0.00" departDelay="4.00" arrival="201.00" arrivalLane="53i_0" arrivalPos="10.00" arrivalSpeed="10.35" duration="96.00" routeLength="1013.10" waitingTime="0.00" waitingCount="0" stopTime="0.00" timeLoss="16.50" rerouteNo="0" devices="tripinfo_down_39" vType="typeNS" speedFactor="0.90" vaporized=""/>
    <tripinfo id="up_41" depart="110.00" departLane="53o_0" departPos="7.10" departSpeed="0.00" departDelay="6.00" arrival="201.00" arrivalLane="54i_0" arrivalPos="10.00" arrivalSpeed="11.08" duration="91.00" routeLength="1013.10" waitingTime="0.00" waitingCount="0" stopTime="0.00" timeLoss="16.24" rerouteNo="0" devices="tripinfo_up_41" vType="typeNS" speedFactor="0.96" vaporized=""/>
    <tripinfo id="up_42" depart="116.00" departLane="53o_0" departPos="7.10" departSpeed="0.00" departDelay="10.00" arrival="203.00" arrivalLane="54i_0" arrivalPos="10.00" arrivalSpeed="11.50" duration="87.00" routeLength="1013.10" waitingTime="0.00" waitingCount="0" stopTime="0.00" timeLoss="21.44" rerouteNo="0" devices="tripinfo_up_42" vType="typeNS" speedFactor="1.09" vaporized=""/>
    <tripinfo id="up_43" depart="122.00" departLane="53o_0" departPos="7.10" departSpeed="0.00" departDelay="14.00" arrival="208.00" arrivalLane="54i_0" arrivalPos="10.00" arrivalSpeed="11.50" duration="86.00" routeLength="1013.10" waitingTime="0.00" waitingCount="0" stopTime="0.00" timeLoss="16.95" rerouteNo="0" devices="tripinfo_up_43" vType="typeNS" speedFactor="1.04" vaporized=""/>
    <tripinfo id="down_52" depart="130.00" departLane="54o_0" departPos="7.10" departSpeed="0.00" departDelay="1.00" arrival="218.00" arrivalLane="53i_0" arrivalPos="10.00" arrivalSpeed="11.54" duration="88.00" routeLength="1013.10" waitingTime="0.00" waitingCount="0" stopTime="0.00" timeLoss="17.62" rerouteNo="0" devices="tripinfo_down_52" vType="typeNS" speedFactor="1.02" vaporized=""/>
    <tripinfo id="up_54" depart="135.00" departLane="53o_0" departPos="7.10" departSpeed="0.00" departDelay="0.00" arrival="223.00" arrivalLane="54i_0" arrivalPos="10.00" arrivalSpeed="11.25" duration="88.00" routeLength="1013.10" waitingTime="0.00" waitingCount="0" stopTime="0.00" timeLoss="16.48" rerouteNo="0" devices="tripinfo_up_54" vType="typeNS" speedFactor="1.00" vaporized=""/>
    <tripinfo id="down_58" depart="149.00" departLane="54o_0" departPos="7.10" departSpeed="0.00" departDelay="0.00" arrival="238.00" arrivalLane="53i_0" arrivalPos="10.00" arrivalSpeed="12.07" duration="89.00" routeLength="1013.10" waitingTime="0.00" waitingCount="0" stopTime="0.00" timeLoss="18.50" rerouteNo="0" devices="tripinfo_down_58" vType="typeNS" speedFactor="1.02" vaporized=""/>
    <tripinfo id="up_56" depart="145.00" departLane="53o_0" departPos="7.10" departSpeed="0.00" departDelay="0.00" arrival="241.00" arrivalLane="54i_0" arrivalPos="10.00" arrivalSpeed="10.29" duration="96.00" routeLength="1013.10" waitingTime="0.00" waitingCount="0" stopTime="0.00" timeLoss="16.50" rerouteNo="0" devices="tripinfo_up_56" vType="typeNS" speedFactor="0.90" vaporized=""/>
    <tripinfo id="up_62" depart="162.00" departLane="53o_0" departPos="7.10" departSpeed="0.00" departDelay="0.00" arrival="249.00" arrivalLane="54i_0" arrivalPos="10.00" arrivalSpeed="11.66" duration="87.00" routeLength="1013.10" waitingTime="0.00" waitingCount="0" stopTime="0.00" timeLoss="16.67" rerouteNo="0" devices="tripinfo_up_62" vType="typeNS" speedFactor="1.02" vaporized=""/>
    <tripinfo id="down_64" depart="164.00" departLane="54o_0" departPos="7.10" departSpeed="0.00" departDelay="0.00" arrival="257.00" arrivalLane="53i_0" arrivalPos="10.00" arrivalSpeed="10.64" duration="93.00" routeLength="1013.10" waitingTime="0.00" waitingCount="0" stopTime="0.00" timeLoss="16.72" rerouteNo="0" devices="tripinfo_down_64" vType="typeNS" speedFactor="0.94" vaporized=""/>
    <tripinfo id="up_65" depart="170.00" departLane="53o_0" departPos="7.10" departSpeed="0.00" departDelay="0.00" arrival="267.00" arrivalLane="54i_0" arrivalPos="10.00" arrivalSpeed="10.51" duration="97.00" routeLength="1013.10" waitingTime="0.00" waitingCount="0" stopTime="0.00" timeLoss="16.01" rerouteNo="0" devices="tripinfo_up_65" vType="typeNS" speedFactor="0.88" vaporized=""/>
    <tripinfo id="up_67" depart="176.00" departLane="53o_0" departPos="7.10" departSpeed="0.00" departDelay="1.00" arrival="271.00" arrivalLane="54i_0" arrivalPos="10.00" arrivalSpeed="10.33" duration="95.00" routeLength="1013.10" waitingTime="0.00" waitingCount="0" stopTime="0.00" timeLoss="17.04" rerouteNo="0" devices="tripinfo_up_67" vType="typeNS" speedFactor="0.91" vaporized=""/>
    <tripinfo id="up_68" depart="182.00" departLane="53o_0" departPos="7.10" departSpeed="0.00" departDelay="4.00" arrival="273.00" arrivalLane="54i_0" arrivalPos="10.00" arrivalSpeed="11.04" duration="91.00" routeLength="1013.10" waitingTime="0.00" waitingCount="0" stopTime="0.00" timeLoss="22.38" rerouteNo="0" devices="tripinfo_up_68" vType="typeNS" speedFactor="1.04" vaporized=""/>
    <tripinfo id="up_72" depart="193.00" departLane="53o_0" departPos="7.10" departSpeed="0.00" departDelay="0.00" arrival="286.00" arrivalLane="54i_0" arrivalPos="10.00" arrivalSpeed="10.55" duration="93.00" routeLength="1013.10" waitingTime="0.00" waitingCount="0" stopTime="0.00" timeLoss="16.77" rerouteNo="0" devices="tripinfo_up_72" vType="typeNS" speedFactor="0.94" vaporized=""/>
    <tripinfo id="down_74" depart="206.00" departLane="54o_0" departPos="7.10" departSpeed="0.00" departDelay="0.00" arrival="298.00" arrivalLane="53i_0" arrivalPos="10.00" arrivalSpeed="10.87" duration="92.00" routeLength="1013.10" waitingTime="0.00" waitingCount="0" stopTime="0.00" timeLoss="17.11" rerouteNo="0" devices="tripinfo_down_74" vType="typeNS" speedFactor="0.96" vaporized=""/>
    <tripinfo id="up_75" depart="212.00" departLane="53o_0" departPos="7.10" departSpeed="0.00" departDelay="0.00" arrival="303.00" arrivalLane="54i_0" arrivalPos="10.00" arrivalSpeed="10.77" duration="91.00" routeLength="1013.10" waitingTime="0.00" waitingCount="0" stopTime="0.00" timeLoss="18.21" rerouteNo="0" devices="tripinfo_up_75" vType="typeNS" speedFactor="0.98" vaporized=""/>
    <tripinfo id="down_77" depart="214.00" departLane="54o_0" departPos="7.10" departSpeed="0.00" departDelay="0.00" arrival="304.00" arrivalLane="53i_0" arrivalPos="10.00" arrivalSpeed="11.20" duration="90.00" routeLength="1013.10" waitingTime="0.00" waitingCount="0" stopTime="0.00" timeLoss="17.03" rerouteNo="0" devices="tripinfo_down_77" vType="typeNS" speedFactor="0.98" vaporized=""/>
    <tripinfo id="down_80" depart="220.00" departLane="54o_0" departPos="7.10" departSpeed="0.00" departDelay="0.00" arrival="309.00" arrivalLane="53i_0" arrivalPos="10.00" arrivalSpeed="12.19" duration="89.00" routeLength="1013.10" waitingTime="0.00" waitingCount="0" stopTime="0.00" timeLoss="19.19" rerouteNo="0" devices="tripinfo_down_80" vType="typeNS" speedFactor="1.03" vaporized=""/>
    <tripinfo id="down_84" depart="241.00" departLane="54o_0" departPos="7.10" departSpeed="0.00" departDelay="0.00" arrival="323.00" arrivalLane="53i_0" arrivalPos="10.00" arrivalSpeed="13.22" duration="82.00" routeLength="1013.10" waitingTime="0.00" waitingCount="0" stopTime="0.00" timeLoss="19.44" rerouteNo="0" devices="tripinfo_down_84" vType="typeNS" speedFactor="1.15" vaporized=""/>
    <tripinfo id="up_85" depart="242.00" departLane="53o_0" departPos="7.10" departSpeed="0.00" departDelay="0.00" arrival="334.00" arrivalLane="54i_0" arrivalPos="10.00" arrivalSpeed="11.13" duration="92.00" routeLength="1013.10" waitingTime="0.00" waitingCount="0" stopTime="0.00" timeLoss="18.87" rerouteNo="0" devices="tripinfo_up_85" vType="typeNS" speedFactor="0.98" vaporized=""/>
    <tripinfo id="up_87" depart="248.00" departLane="53o_0" departPos="7.10" departSpeed="0.00" departDelay="1.00" arrival="336.00" arrivalLane="54i_0" arrivalPos="10.00" arrivalSpeed="11.91" duration="88.00" routeLength="1013.10" waitingTime="0.00" waitingCount="0" stopTime="0.00" timeLoss="19.46" rerouteNo="0" devices="tripinfo_up_87" vType="typeNS" speedFactor="1.04" vaporized=""/>
    <tripinfo id="up_88" depart="254.00" departLane="53o_0" departPos="7.10" departSpeed="0.00" departDelay="6.00" arrival="343.00" arrivalLane="54i_0" arrivalPos="10.00" arrivalSpeed="11.65" duration="89.00" routeLength="1013.10" waitingTime="0.00" waitingCount="0" stopTime="0.00" timeLoss="17.47" rerouteNo="0" devices="tripinfo_up_88" vType="typeNS" speedFactor="1.01" vaporized=""/>
    <tripinfo id="up_95" depart="260.00" departLane="53o_0" departPos="7.10" departSpeed="0.00" departDelay="1.00" arrival="346.00" arrivalLane="54i_0" arrivalPos="10.00" arrivalSpeed="12.19" duration="86.00" routeLength="1013.10" waitingTime="0.00" waitingCount="0" stopTime="0.00" timeLoss="17.91" rerouteNo="0" devices="tripinfo_up_95" vType="typeNS" speedFactor="1.06" vaporized=""/>
    <tripinfo id="down_91" depart="254.00" departLane="54o_0" departPos="7.10" departSpeed="0.00" departDelay="0.00" arrival="350.00" arrivalLane="53i_0" arrivalPos="10.00" arrivalSpeed="10.30" duration="96.00" routeLength="1013.10" waitingTime="0.00" waitingCount="0" stopTime="0.00" timeLoss="16.20" rerouteNo="0" devices="tripinfo_down_91" vType="typeNS" speedFactor="0.89" vaporized=""/>
    <tripinfo id="down_92" depart="260.00" departLane="54o_0" departPos="7.10" departSpeed="0.00" departDelay="4.00" arrival="361.00" arrivalLane="53i_0" arrivalPos="10.00" arrivalSpeed="9.88" duration="101.00" routeLength="1013.10" waitingTime="0.00" waitingCount="0" stopTime="0.00" timeLoss="15.25" rerouteNo="0" devices="tripinfo_down_92" vType="typeNS" speedFactor="0.83" vaporized=""/>
    <tripinfo id="up_97" depart="266.00" departLane="53o_0" departPos="7.10" departSpeed="0.00" departDelay="3.00" arrival="361.00" arrivalLane="54i_0" arrivalPos="10.00" arrivalSpeed="10.22" duration="95.00" routeLength="1013.10" waitingTime="0.00" waitingCount="0" stopTime="0.00" timeLoss="15.73" rerouteNo="0" devices="tripinfo_up_97" vType="typeNS" speedFactor="0.91" vaporized=""/>
    <tripinfo id="down_94" depart="267.00" departLane="54o_0" departPos="7.10" departSpeed="0.00" departDelay="9.00" arrival="363.00" arrivalLane="53i_0" arrivalPos="10.00" arrivalSpeed="10.28" duration="96.00" routeLength="1013.10" waitingTime="0.00" waitingCount="0" stopTime="0.00" timeLoss="30.51" rerouteNo="0" devices="tripinfo_down_94" vType="typeNS" speedFactor="1.09" vaporized=""/>
    <tripinfo id="down_99" depart="273.00" departLane="54o_0" departPos="7.10" departSpeed="0.00" departDelay="8.00" arrival="365.00" arrivalLane="53i_0" arrivalPos="10.00" arrivalSpeed="10.78" duration="92.00" routeLength="1013.10" waitingTime="0.00" waitingCount="0" stopTime="0.00" timeLoss="26.80" rerouteNo="0" devices="tripinfo_down_99" vType="typeNS" speedFactor="1.10" vaporized=""/>
    <tripinfo id="up_101" depart="272.00" departLane="53o_0" departPos="7.10" departSpeed="0.00" departDelay="0.00" arrival="366.00" arrivalLane="54i_0" arrivalPos="10.00" arrivalSpeed="11.11" duration="94.00" routeLength="1013.10" waitingTime="0.00" waitingCount="0" stopTime="0.00" timeLoss="19.19" rerouteNo="0" devices="tripinfo_up_101" vType="typeNS" speedFactor="0.96" vaporized=""/>
    <tripinfo id="down_102" depart="278.00" departLane="54o_0" departPos="7.10" departSpeed="0.00" departDelay="5.00" arrival="368.00" arrivalLane="53i_0" arrivalPos="10.00" arrivalSpeed="11.24" duration="90.00" routeLength="1013.10" waitingTime="0.00" waitingCount="0" stopTime="0.00" timeLoss="16.32" rerouteNo="0" devices="tripinfo_down_102" vType="typeNS" speedFactor="0.97" vaporized=""/>
    <tripinfo id="up_105" depart="284.00" departLane="53o_0" departPos="7.10" departSpeed="0.00" departDelay="0.00" arrival="369.00" arrivalLane="54i_0" arrivalPos="10.00" arrivalSpeed="12.19" duration="85.00" routeLength="1013.10" waitingTime="0.00" waitingCount="0" stopTime="0.00" timeLoss="17.91" rerouteNo="0" devices="tripinfo_up_105" vType="typeNS" speedFactor="1.07" vaporized=""/>
    <tripinfo id="down_110" depart="293.00" departLane="54o_0" departPos="7.10" departSpeed="0.00" departDelay="0.00" arrival="386.00" arrivalLane="53i_0" arrivalPos="10.00" arrivalSpeed="10.75" duration="93.00" routeLength="1013.10" waitingTime="0.00" waitingCount="0" stopTime="0.00" timeLoss="15.43" rerouteNo="0" devices="tripinfo_down_110" vType="typeNS" speedFactor="0.93" vaporized=""/>
    <tripinfo id="left_0" depart="0.00" departLane="52o_0" departPos="5.10" departSpeed="0.00" departDelay="0.00" arrival="390.00" arrivalLane="51i_0" arrivalPos="10.00" arrivalSpeed="12.24" duration="390.00" routeLength="1005.60" waitingTime="301.00" waitingCount="1" stopTime="0.00" timeLoss="317.24" rerouteNo="0" devices="tripinfo_left_0" vType="typeWE" speedFactor="1.06" vaporized=""/>
    <tripinfo id="right_3" depart="3.00" departLane="51o_0" departPos="5.10" departSpeed="0.00" departDelay="0.00" arrival="393.00" arrivalLane="52i_0" arrivalPos="10.00" arrivalSpeed="12.41" duration="390.00" routeLength="1005.60" waitingTime="301.00" waitingCount="1" stopTime="0.00" timeLoss="318.17" rerouteNo="0" devices="tripinfo_right_3" vType="typeWE" speedFactor="1.08" vaporized=""/>
    <tripinfo id="up_115" depart="299.00" departLane="53o_0" departPos="7.10" departSpeed="0.00" departDelay="0.00" arrival="394.00" arrivalLane="54i_0" arrivalPos="10.00" arrivalSpeed="10.80" duration="95.00" routeLength="1013.10" waitingTime="0.00" waitingCount="0" stopTime="0.00" timeLoss="16.83" rerouteNo="0" devices="tripinfo_up_115" vType="typeNS" speedFactor="0.92" vaporized=""/>
    <tripinfo id="down_111" depart="298.00" departLane="54o_0" departPos="7.10" departSpeed="0.00" departDelay="3.00" arrival="397.00" arrivalLane="53i_0" arrivalPos="10.00" arrivalSpeed="10.18" duration="99.00" routeLength="1013.10" waitingTime="0.00" waitingCount="0" stopTime="0.00" timeLoss="15.95" rerouteNo="0" devices="tripinfo_down_111" vType="typeNS" speedFactor="0.87" vaporized=""/>
    <tripinfo id="down_119" depart="311.00" departLane="54o_0" departPos="7.10" departSpeed="0.00" departDelay="0.00" arrival="399.00" arrivalLane="53i_0" arrivalPos="10.00" arrivalSpeed="10.57" duration="88.00" routeLength="1013.10" waitingTime="0.00" waitingCount="0" stopTime="0.00" timeLoss="20.99" rerouteNo="0" devices="tripinfo_down_119" vType="typeNS" speedFactor="1.07" vaporized=""/>
    <tripinfo id="down_123" depart="330.00" departLane="54o_0" departPos="7.10" departSpeed="0.00" departDelay="0.00" arrival="419.00" arrivalLane="53i_0" arrivalPos="10.00" arrivalSpeed="11.83" duration="89.00" routeLength="1013.10" waitingTime="0.00" waitingCount="0" stopTime="0.00" timeLoss="18.87" rerouteNo="0" devices="tripinfo_down_123" vType="typeNS" speedFactor="1.02" vaporized=""/>
    <tripinfo id="down_125" depart="343.00" departLane="54o_0" departPos="7.10" departSpeed="0.00" departDelay="0.00" arrival="426.00" arrivalLane="53i_0" arrivalPos="10.00" arrivalSpeed="13.09" duration="83.00" routeLength="1013.10" waitingTime="0.00" waitingCount="0" stopTime="0.00" timeLoss="20.81" rerouteNo="0" devices="tripinfo_down_125" vType="typeNS" speedFactor="1.15" vaporized=""/>
    <tripinfo id="up_126" depart="344.00" departLane="53o_0" departPos="7.10" departSpeed="0.00" departDelay="0.00" arrival="430.00" arrivalLane="54i_0" arrivalPos="10.00" arrivalSpeed="11.93" duration="86.00" routeLength="1013.10" waitingTime="0.00" waitingCount="0" stopTime="0.00" timeLoss="17.06" rerouteNo="0" devices="tripinfo_up_126" vType="typeNS" speedFactor="1.03" vaporized=""/>
    <tripinfo id="down_135" depart="361.00" departLane="54o_0" departPos="7.10" departSpeed="0.00" departDelay="0.00" arrival="449.00" arrivalLane="53i_0" arrivalPos="10.00" arrivalSpeed="11.84" duration="88.00" routeLength="1013.10" waitingTime="0.00" waitingCount="0" stopTime="0.00" timeLoss="17.56" rerouteNo="0" devices="tripinfo_down_135" vType="typeNS" speedFactor="1.01" vaporized=""/>
    <tripinfo id="down_136" depart="369.00" departLane="54o_0" departPos="7.10" departSpeed="0.00" departDelay="7.00" arrival="452.00" arrivalLane="53i_0" arrivalPos="10.00" arrivalSpeed="12.52" duration="83.00" routeLength="1013.10" waitingTime="0.00" waitingCount="0" stopTime="0.00" timeLoss="18.53" rerouteNo="0" devices="tripinfo_down_136" vType="typeNS" speedFactor="1.12" vaporized=""/>
    <tripinfo id="up_127" depart="350.00" departLane="53o_0" departPos="7.10" departSpeed="0.00" departDelay="3.00" arrival="453.00" arrivalLane="54i_0" arrivalPos="10.00" arrivalSpeed="9.44" duration="103.00" routeLength="1013.10" waitingTime="0.00" waitingCount="0" stopTime="0.00" timeLoss="16.09" rerouteNo="0" devices="tripinfo_up_127" vType="typeNS" speedFactor="0.82" vaporized=""/>
    <tripinfo id="up_132" depart="356.00" departLane="53o_0" departPos="7.10" departSpeed="0.00" departDelay="2.00" arrival="455.00" arrivalLane="54i_0" arrivalPos="10.00" arrivalSpeed="10.22" duration="99.00" routeLength="1013.10" waitingTime="0.00" waitingCount="0" stopTime="0.00" timeLoss="24.59" rerouteNo="0" devices="tripinfo_up_132" vType="typeNS" speedFactor="0.96" vaporized=""/>
    <tripinfo id="down_139" depart="375.00" departLane="54o_0" departPos="7.10" departSpeed="0.00" departDelay="5.00" arrival="466.00" arrivalLane="53i_0" arrivalPos="10.00" arrivalSpeed="10.93" duration="91.00" routeLength="1013.10" waitingTime="0.00" waitingCount="0" stopTime="0.00" timeLoss="15.97" rerouteNo="0" devices="tripinfo_down_139" vType="typeNS" speedFactor="0.95" vaporized=""/>
    <tripinfo id="down_143" depart="381.00" departLane="54o_0" departPos="7.10" departSpeed="0.00" departDelay="5.00" arrival="468.00" arrivalLane="53i_0" arrivalPos="10.00" arrivalSpeed="11.69" duration="87.00" routeLength="1013.10" waitingTime="0.00" waitingCount="0" stopTime="0.00" timeLoss="23.60" rerouteNo="0" devices="tripinfo_down_143" vType="typeNS" speedFactor="1.13" vaporized=""/>
    <tripinfo id="up_145" depart="386.00" departLane="53o_0" departPos="7.10" departSpeed="0.00" departDelay="1.00" arrival="469.00" arrivalLane="54i_0" arrivalPos="10.00" arrivalSpeed="12.52" duration="83.00" routeLength="1013.10" waitingTime="0.00" waitingCount="0" stopTime="0.00" timeLoss="20.10" rerouteNo="0" devices="tripinfo_up_145" vType="typeNS" speedFactor="1.14" vaporized=""/>
    <tripinfo id="up_156" depart="415.00" departLane="53o_0" departPos="7.10" departSpeed="0.00" departDelay="0.00" arrival="496.00" arrivalLane="54i_0" arrivalPos="10.00" arrivalSpeed="13.67" duration="81.00" routeLength="1013.10" waitingTime="0.00" waitingCount="0" stopTime="0.00" timeLoss="20.27" rerouteNo="0" devices="tripinfo_up_156" vType="typeNS" speedFactor="1.18" vaporized=""/>
    <tripinfo id="down_144" depart="387.00" departLane="54o_0" departPos="7.10" departSpeed="0.00" departDelay="3.00" arrival="499.00" arrivalLane="53i_0" arrivalPos="10.00" arrivalSpeed="8.70" duration="112.00" routeLength="1013.10" waitingTime="0.00" waitingCount="0" stopTime="0.00" timeLoss="14.34" rerouteNo="0" devices="tripinfo_down_144" vType="typeNS" speedFactor="0.73" vaporized=""/>
    <tripinfo id="down_147" depart="394.00" departLane="54o_0" departPos="7.10" departSpeed="0.00" departDelay="4.00" arrival="501.00" arrivalLane="53i_0" arrivalPos="10.00" arrivalSpeed="9.51" duration="107.00" routeLength="1013.10" waitingTime="0.00" waitingCount="0" stopTime="0.00" timeLoss="35.50" rerouteNo="0" devices="tripinfo_down_147" vType="typeNS" speedFactor="1.00" vaporized=""/>
    <tripinfo id="down_149" depart="400.00" departLane="54o_0" departPos="7.10" departSpeed="0.00" departDelay="5.00" arrival="503.00" arrivalLane="53i_0" arrivalPos="10.00" arrivalSpeed="9.54" duration="103.00" routeLength="1013.10" waitingTime="0.00" waitingCount="0" stopTime="0.00" timeLoss="34.44" rerouteNo="0" devices="tripinfo_down_149" vType="typeNS" speedFactor="1.04" vaporized=""/>
    <tripinfo id="down_154" depart="410.00" departLane="54o_0" departPos="7.10" departSpeed="0.00" departDelay="0.00" arrival="505.00" arrivalLane="53i_0" arrivalPos="10.00" arrivalSpeed="10.20" duration="95.00" routeLength="1013.10" waitingTime="0.00" waitingCount="0" stopTime="0.00" timeLoss="27.96" rerouteNo="0" devices="tripinfo_down_154" vType="typeNS" speedFactor="1.06" vaporized=""/>
    <tripinfo id="up_157" depart="421.00" departLane="53o_0" departPos="7.10" departSpeed="0.00" departDelay="2.00" arrival="506.00" arrivalLane="54i_0" arrivalPos="10.00" arrivalSpeed="12.69" duration="85.00" routeLength="1013.10" waitingTime="0.00" waitingCount="0" stopTime="0.00" timeLoss="19.00" rerouteNo="0" devices="tripinfo_up_157" vType="typeNS" speedFactor="1.08" vaporized=""/>
    <tripinfo id="down_161" depart="434.00" departLane="54o_0" departPos="7.10" departSpeed="0.00" departDelay="0.00" arrival="519.00" arrivalLane="53i_0" arrivalPos="10.00" arrivalSpeed="11.62" duration="85.00" routeLength="1013.10" waitingTime="0.00" waitingCount="0" stopTime="0.00" timeLoss="18.64" rerouteNo="0" devices="tripinfo_down_161" vType="typeNS" speedFactor="1.08" vaporized=""/>
    <tripinfo id="up_158" depart="427.00" departLane="53o_0" departPos="7.10" departSpeed="0.00" departDelay="4.00" arrival="523.00" arrivalLane="54i_0" arrivalPos="10.00" arrivalSpeed="10.20" duration="96.00" routeLength="1013.10" waitingTime="0.00" waitingCount="0" stopTime="0.00" timeLoss="17.02" rerouteNo="0" devices="tripinfo_up_158" vType="typeNS" speedFactor="0.91" vaporized=""/>