<?xml version="1.0" encoding="UTF-8"?>

<!-- generated on 2024-11-23 22:37:20 by Eclipse SUMO GUI Version 1.15.0
<configuration xmlns:xsi="http://www.w3.org/2001/XMLSchema-instance" xsi:noNamespaceSchemaLocation="http://sumo.dlr.de/xsd/sumoConfiguration.xsd">

    <input>
        <net-file value="data/cross.net.xml"/>
        <route-files value="data/cross.rou.xml"/>
        <additional-files value="data/cross.det.xml"/>
    </input>

    <output>
        <tripinfo-output value="tripinfo.xml"/>
    </output>

    <time>
        <begin value="0"/>
        <step-length value="1.0"/>
    </time>

    <processing>
        <collision.action value="warn"/>
    </processing>

    <report>
        <verbose value="true"/>
        <no-step-log value="true"/>
    </report>

    <traci_server>
        <remote-port value="57073"/>
    </traci_server>

</configuration>
-->

<tripinfos xmlns:xsi="http://www.w3.org/2001/XMLSchema-instance" xsi:noNamespaceSchemaLocation="http://sumo.dlr.de/xsd/tripinfo_file.xsd">
    <tripinfo id="left_0" depart="0.00" departLane="52o_0" departPos="5.10" departSpeed="0.00" departDelay="0.00" arrival="88.00" arrivalLane="51i_0" arrivalPos="10.00" arrivalSpeed="12.10" duration="88.00" routeLength="1015.10" waitingTime="0.00" waitingCount="0" stopTime="0.00" timeLoss="14.59" rerouteNo="0" devices="tripinfo_left_0" vType="typeWE@left_0" speedFactor="1.06" vaporized=""/>
    <tripinfo id="right_3" depart="3.00" departLane="51o_0" departPos="5.10" departSpeed="0.00" departDelay="0.00" arrival="91.00" arrivalLane="52i_0" arrivalPos="10.00" arrivalSpeed="12.39" duration="88.00" routeLength="1015.10" waitingTime="0.00" waitingCount="0" stopTime="0.00" timeLoss="14.85" rerouteNo="0" devices="tripinfo_right_3" vType="typeWE@right_3" speedFactor="1.08" vaporized=""/>
    <tripinfo id="left_2" depart="5.00" departLane="52o_0" departPos="5.10" departSpeed="0.00" departDelay="3.00" arrival="95.00" arrivalLane="51i_0" arrivalPos="10.00" arrivalSpeed="10.85" duration="90.00" routeLength="1015.10" waitingTime="0.00" waitingCount="0" stopTime="0.00" timeLoss="14.50" rerouteNo="0" devices="tripinfo_left_2" vType="typeWE@left_2" speedFactor="1.01" vaporized=""/>
    <tripinfo id="right_8" depart="11.00" departLane="51o_0" departPos="5.10" departSpeed="0.00" departDelay="0.00" arrival="106.00" arrivalLane="52i_0" arrivalPos="10.00" arrivalSpeed="10.82" duration="95.00" routeLength="1015.10" waitingTime="0.00" waitingCount="0" stopTime="0.00" timeLoss="15.31" rerouteNo="0" devices="tripinfo_right_8" vType="typeWE@right_8" speedFactor="0.94" vaporized=""/>
    <tripinfo id="left_7" depart="10.00" departLane="52o_0" departPos="5.10" departSpeed="0.00" departDelay="0.00" arrival="107.00" arrivalLane="51i_0" arrivalPos="10.00" arrivalSpeed="10.05" duration="97.00" routeLength="1015.10" waitingTime="0.00" waitingCount="0" stopTime="0.00" timeLoss="15.10" rerouteNo="0" devices="tripinfo_left_7" vType="typeWE@left_7" speedFactor="0.89" vaporized=""/>
    <tripinfo id="up_1" depart="1.00" departLane="53o_0" departPos="7.10" departSpeed="0.00" departDelay="0.00" arrival="118.00" arrivalLane="54i_0" arrivalPos="10.00" arrivalSpeed="10.75" duration="117.00" routeLength="1013.10" waitingTime="13.00" waitingCount="1" stopTime="0.00" timeLoss="40.54" rerouteNo="0" devices="tripinfo_up_1" vType="typeNS@up_1" speedFactor="0.94" vaporized=""/>
    <tripinfo id="up_4" depart="7.00" departLane="53o_0" departPos="7.10" departSpeed="0.00" departDelay="3.00" arrival="119.00" arrivalLane="54i_0" arrivalPos="10.00" arrivalSpeed="11.03" duration="112.00" routeLength="1013.10" waitingTime="11.00" waitingCount="1" stopTime="0.00" timeLoss="42.51" rerouteNo="0" devices="tripinfo_up_4" vType="typeNS@up_4" speedFactor="1.03" vaporized=""/>
    <tripinfo id="up_6" depart="13.00" departLane="53o_0" departPos="7.10" departSpeed="0.00" departDelay="7.00" arrival="120.00" arrivalLane="54i_0" arrivalPos="10.00" arrivalSpeed="10.90" duration="107.00" routeLength="1013.10" waitingTime="8.00" waitingCount="1" stopTime="0.00" timeLoss="38.76" rerouteNo="0" devices="tripinfo_up_6" vType="typeNS@up_6" speedFactor="1.05" vaporized=""/>
    <tripinfo id="down_5" depart="6.00" departLane="54o_0" departPos="7.10" departSpeed="0.00" departDelay="0.00" arrival="124.00" arrivalLane="53i_0" arrivalPos="10.00" arrivalSpeed="9.72" duration="118.00" routeLength="1013.10" waitingTime="6.00" waitingCount="1" stopTime="0.00" timeLoss="31.43" rerouteNo="0" devices="tripinfo_down_5" vType="typeNS@down_5" speedFactor="0.83" vaporized=""/>
    <tripinfo id="down_12" depart="23.00" departLane="54o_0" departPos="7.10" departSpeed="0.00" departDelay="0.00" arrival="125.00" arrivalLane="53i_0" arrivalPos="10.00" arrivalSpeed="10.04" duration="102.00" routeLength="1013.10" waitingTime="0.00" waitingCount="0" stopTime="0.00" timeLoss="33.46" rerouteNo="0" devices="tripinfo_down_12" vType="typeNS@down_12" speedFactor="1.05" vaporized=""/>
    <tripinfo id="down_15" depart="31.00" departLane="54o_0" departPos="7.10" departSpeed="0.00" departDelay="0.00" arrival="126.00" arrivalLane="53i_0" arrivalPos="10.00" arrivalSpeed="9.79" duration="95.00" routeLength="1013.10" waitingTime="0.00" waitingCount="0" stopTime="0.00" timeLoss="17.67" rerouteNo="0" devices="tripinfo_down_15" vType="typeNS@down_15" speedFactor="0.93" vaporized=""/>
    <tripinfo id="up_9" depart="19.00" departLane="53o_0" departPos="7.10" departSpeed="0.00" departDelay="3.00" arrival="130.00" arrivalLane="54i_0" arrivalPos="10.00" arrivalSpeed="9.84" duration="111.00" routeLength="1013.10" waitingTime="3.00" waitingCount="1" stopTime="0.00" timeLoss="27.33" rerouteNo="0" devices="tripinfo_up_9" vType="typeNS@up_9" speedFactor="0.86" vaporized=""/>
    <tripinfo id="down_17" depart="37.00" departLane="54o_0" departPos="7.10" departSpeed="0.00" departDelay="4.00" arrival="130.00" arrivalLane="53i_0" arrivalPos="10.00" arrivalSpeed="11.12" duration="93.00" routeLength="1013.10" waitingTime="0.00" waitingCount="0" stopTime="0.00" timeLoss="16.82" rerouteNo="0" devices="tripinfo_down_17" vType="typeNS@down_17" speedFactor="0.94" vaporized=""/>
    <tripinfo id="up_16" depart="32.00" departLane="53o_0" departPos="7.10" departSpeed="0.00" departDelay="0.00" arrival="131.00" arrivalLane="54i_0" arrivalPos="10.00" arrivalSpeed="10.11" duration="99.00" routeLength="1013.10" waitingTime="0.00" waitingCount="0" stopTime="0.00" timeLoss="17.47" rerouteNo="0" devices="tripinfo_up_16" vType="typeNS@up_16" speedFactor="0.88" vaporized=""/>
    <tripinfo id="up_22" depart="45.00" departLane="53o_0" departPos="7.10" departSpeed="0.00" departDelay="0.00" arrival="136.00" arrivalLane="54i_0" arrivalPos="10.00" arrivalSpeed="10.93" duration="91.00" routeLength="1013.10" waitingTime="0.00" waitingCount="0" stopTime="0.00" timeLoss="17.57" rerouteNo="0" devices="tripinfo_up_22" vType="typeNS@up_22" speedFactor="0.97" vaporized=""/>
    <tripinfo id="right_10" depart="22.00" departLane="51o_0" departPos="5.10" departSpeed="0.00" departDelay="0.00" arrival="142.00" arrivalLane="52i_0" arrivalPos="10.00" arrivalSpeed="12.22" duration="120.00" routeLength="1015.10" waitingTime="22.00" waitingCount="1" stopTime="0.00" timeLoss="47.30" rerouteNo="0" devices="tripinfo_right_10" vType="typeWE@right_10" speedFactor="1.09" vaporized=""/>
    <tripinfo id="left_11" depart="22.00" departLane="52o_0" departPos="5.10" departSpeed="0.00" departDelay="0.00" arrival="145.00" arrivalLane="51i_0" arrivalPos="10.00" arrivalSpeed="11.63" duration="123.00" routeLength="1015.10" waitingTime="20.00" waitingCount="1" stopTime="0.00" timeLoss="47.96" rerouteNo="0" devices="tripinfo_left_11" vType="typeWE@left_11" speedFactor="1.03" vaporized=""/>
    <tripinfo id="right_13" depart="27.00" departLane="51o_0" departPos="5.10" departSpeed="0.00" departDelay="2.00" arrival="145.00" arrivalLane="52i_0" arrivalPos="10.00" arrivalSpeed="12.93" duration="118.00" routeLength="1015.10" waitingTime="20.00" waitingCount="1" stopTime="0.00" timeLoss="46.33" rerouteNo="0" devices="tripinfo_right_13" vType="typeWE@right_13" speedFactor="1.12" vaporized=""/>
    <tripinfo id="left_20" depart="41.00" departLane="52o_0" departPos="5.10" departSpeed="0.00" departDelay="0.00" arrival="148.00" arrivalLane="51i_0" arrivalPos="10.00" arrivalSpeed="11.98" duration="107.00" routeLength="1015.10" waitingTime="6.00" waitingCount="1" stopTime="0.00" timeLoss="31.31" rerouteNo="0" devices="tripinfo_left_20" vType="typeWE@left_20" speedFactor="1.02" vaporized=""/>
    <tripinfo id="right_14" depart="32.00" departLane="51o_0" departPos="5.10" departSpeed="0.00" departDelay="1.00" arrival="150.00" arrivalLane="52i_0" arrivalPos="10.00" arrivalSpeed="11.46" duration="118.00" routeLength="1015.10" waitingTime="17.00" waitingCount="1" stopTime="0.00" timeLoss="41.58" rerouteNo="0" devices="tripinfo_right_14" vType="typeWE@right_14" speedFactor="0.99" vaporized=""/>
    <tripinfo id="right_18" depart="37.00" departLane="51o_0" departPos="5.10" departSpeed="0.00" departDelay="3.00" arrival="155.00" arrivalLane="52i_0" arrivalPos="10.00" arrivalSpeed="10.79" duration="118.00" routeLength="1015.10" waitingTime="14.00" waitingCount="1" stopTime="0.00" timeLoss="38.29" rerouteNo="0" devices="tripinfo_right_18" vType="typeWE@right_18" speedFactor="0.94" vaporized=""/>
    <tripinfo id="left_23" depart="49.00" departLane="52o_0" departPos="5.10" departSpeed="0.00" departDelay="0.00" arrival="155.00" arrivalLane="51i_0" arrivalPos="10.00" arrivalSpeed="10.34" duration="106.00" routeLength="1015.10" waitingTime="0.00" waitingCount="0" stopTime="0.00" timeLoss="24.27" rerouteNo="0" devices="tripinfo_left_23" vType="typeWE@left_23" speedFactor="0.89" vaporized=""/>
    <tripinfo id="right_19" depart="42.00" departLane="51o_0" departPos="5.10" departSpeed="0.00" departDelay="2.00" arrival="156.00" arrivalLane="52i_0" arrivalPos="10.00" arrivalSpeed="10.59" duration="114.00" routeLength="1015.10" waitingTime="13.00" waitingCount="1" stopTime="0.00" timeLoss="43.68" rerouteNo="0" devices="tripinfo_right_19" vType="typeWE@right_19" speedFactor="1.16" vaporized=""/>
    <tripinfo id="right_21" depart="47.00" departLane="51o_0" departPos="5.10" departSpeed="0.00" departDelay="3.00" arrival="157.00" arrivalLane="52i_0" arrivalPos="10.00" arrivalSpeed="11.51" duration="110.00" routeLength="1015.10" waitingTime="8.00" waitingCount="1" stopTime="0.00" timeLoss="34.64" rerouteNo="0" devices="tripinfo_right_21" vType="typeWE@right_21" speedFactor="1.01" vaporized=""/>
    <tripinfo id="left_29" depart="67.00" departLane="52o_0" departPos="5.10" departSpeed="0.00" departDelay="0.00" arrival="160.00" arrivalLane="51i_0" arrivalPos="10.00" arrivalSpeed="10.66" duration="93.00" routeLength="1015.10" waitingTime="0.00" waitingCount="0" stopTime="0.00" timeLoss="13.78" rerouteNo="0" devices="tripinfo_left_29" vType="typeWE@left_29" speedFactor="0.93" vaporized=""/>
    <tripinfo id="right_25" depart="56.00" departLane="51o_0" departPos="5.10" departSpeed="0.00" departDelay="0.00" arrival="165.00" arrivalLane="52i_0" arrivalPos="10.00" arrivalSpeed="10.08" duration="109.00" routeLength="1015.10" waitingTime="2.00" waitingCount="1" stopTime="0.00" timeLoss="26.15" rerouteNo="0" devices="tripinfo_right_25" vType="typeWE@right_25" speedFactor="0.87" vaporized=""/>
    <tripinfo id="left_32" depart="74.00" departLane="52o_0" departPos="5.10" departSpeed="0.00" departDelay="0.00" arrival="165.00" arrivalLane="51i_0" arrivalPos="10.00" arrivalSpeed="11.75" duration="91.00" routeLength="1015.10" waitingTime="0.00" waitingCount="0" stopTime="0.00" timeLoss="14.84" rerouteNo="0" devices="tripinfo_left_32" vType="typeWE@left_32" speedFactor="1.01" vaporized=""/>
    <tripinfo id="right_27" depart="63.00" departLane="51o_0" departPos="5.10" departSpeed="0.00" departDelay="0.00" arrival="166.00" arrivalLane="52i_0" arrivalPos="10.00" arrivalSpeed="10.15" duration="103.00" routeLength="1015.10" waitingTime="0.00" waitingCount="0" stopTime="0.00" timeLoss="24.42" rerouteNo="0" devices="tripinfo_right_27" vType="typeWE@right_27" speedFactor="0.95" vaporized=""/>
    <tripinfo id="right_28" depart="68.00" departLane="51o_0" departPos="5.10" departSpeed="0.00" departDelay="4.00" arrival="167.00" arrivalLane="52i_0" arrivalPos="10.00" arrivalSpeed="10.21" duration="99.00" routeLength="1015.10" waitingTime="0.00" waitingCount="0" stopTime="0.00" timeLoss="28.15" rerouteNo="0" devices="tripinfo_right_28" vType="typeWE@right_28" speedFactor="1.13" vaporized=""/>
    <tripinfo id="down_26" depart="57.00" departLane="54o_0" departPos="7.10" departSpeed="0.00" departDelay="0.00" arrival="179.00" arrivalLane="53i_0" arrivalPos="10.00" arrivalSpeed="10.38" duration="122.00" routeLength="1013.10" waitingTime="16.00" waitingCount="1" stopTime="0.00" timeLoss="44.01" rerouteNo="0" devices="tripinfo_down_26" vType="typeNS@down_26" speedFactor="0.92" vaporized=""/>
    <tripinfo id="down_31" depart="72.00" departLane="54o_0" departPos="7.10" departSpeed="0.00" departDelay="0.00" arrival="180.00" arrivalLane="53i_0" arrivalPos="10.00" arrivalSpeed="10.40" duration="108.00" routeLength="1013.10" waitingTime="8.00" waitingCount="1" stopTime="0.00" timeLoss="46.14" rerouteNo="0" devices="tripinfo_down_31" vType="typeNS@down_31" speedFactor="1.15" vaporized=""/>
    <tripinfo id="down_33" depart="77.00" departLane="54o_0" departPos="7.10" departSpeed="0.00" departDelay="3.00" arrival="182.00" arrivalLane="53i_0" arrivalPos="10.00" arrivalSpeed="7.61" duration="105.00" routeLength="1013.10" waitingTime="5.00" waitingCount="1" stopTime="0.00" timeLoss="44.08" rerouteNo="0" devices="tripinfo_down_33" vType="typeNS@down_33" speedFactor="1.17" vaporized=""/>
    <tripinfo id="down_35" depart="85.00" departLane="54o_0" departPos="7.10" departSpeed="0.00" departDelay="0.00" arrival="184.00" arrivalLane="53i_0" arrivalPos="10.00" arrivalSpeed="7.59" duration="99.00" routeLength="1013.10" waitingTime="0.00" waitingCount="0" stopTime="0.00" timeLoss="28.81" rerouteNo="0" devices="tripinfo_down_35" vType="typeNS@down_35" speedFactor="1.02" vaporized=""/>
    <tripinfo id="up_24" depart="51.00" departLane="53o_0" departPos="7.10" departSpeed="0.00" departDelay="0.00" arrival="185.00" arrivalLane="54i_0" arrivalPos="10.00" arrivalSpeed="9.27" duration="134.00" routeLength="1013.10" waitingTime="21.00" waitingCount="1" stopTime="0.00" timeLoss="47.64" rerouteNo="0" devices="tripinfo_up_24" vType="typeNS@up_24" speedFactor="0.83" vaporized=""/>
    <tripinfo id="up_30" depart="71.00" departLane="53o_0" departPos="7.10" departSpeed="0.00" departDelay="0.00" arrival="187.00" arrivalLane="54i_0" arrivalPos="10.00" arrivalSpeed="10.00" duration="116.00" routeLength="1013.10" waitingTime="8.00" waitingCount="1" stopTime="0.00" timeLoss="54.97" rerouteNo="0" devices="tripinfo_up_30" vType="typeNS@up_30" speedFactor="1.18" vaporized=""/>
    <tripinfo id="down_38" depart="98.00" departLane="54o_0" departPos="7.10" departSpeed="0.00" departDelay="0.00" arrival="187.00" arrivalLane="53i_0" arrivalPos="10.00" arrivalSpeed="6.92" duration="89.00" routeLength="1013.10" waitingTime="0.00" waitingCount="0" stopTime="0.00" timeLoss="23.56" rerouteNo="0" devices="tripinfo_down_38" vType="typeNS@down_38" speedFactor="1.10" vaporized=""/>
    <tripinfo id="up_37" depart="93.00" departLane="53o_0" departPos="7.10" departSpeed="0.00" departDelay="0.00" arrival="188.00" arrivalLane="54i_0" arrivalPos="10.00" arrivalSpeed="9.96" duration="95.00" routeLength="1013.10" waitingTime="0.00" waitingCount="0" stopTime="0.00" timeLoss="34.12" rerouteNo="0" devices="tripinfo_up_37" vType="typeNS@up_37" speedFactor="1.18" vaporized=""/>
    <tripinfo id="up_40" depart="103.00" departLane="53o_0" departPos="7.10" departSpeed="0.00" departDelay="0.00" arrival="190.00" arrivalLane="54i_0" arrivalPos="10.00" arrivalSpeed="11.90" duration="87.00" routeLength="1013.10" waitingTime="0.00" waitingCount="0" stopTime="0.00" timeLoss="17.75" rerouteNo="0" devices="tripinfo_up_40" vType="typeNS@up_40" speedFactor="1.03" vaporized=""/>
    <tripinfo id="down_39" depart="103.00" departLane="54o_0" departPos="7.10" departSpeed="0.00" departDelay="2.00" arrival="198.00" arrivalLane="53i_0" arrivalPos="10.00" arrivalSpeed="10.61" duration="95.00" routeLength="1013.10" waitingTime="0.00" waitingCount="0" stopTime="0.00" timeLoss="15.60" rerouteNo="0" devices="tripinfo_down_39" vType="typeNS@down_39" speedFactor="0.90" vaporized=""/>
    <tripinfo id="left_45" depart="117.00" departLane="52o_0" departPos="5.10" departSpeed="0.00" departDelay="0.00" arrival="204.00" arrivalLane="51i_0" arrivalPos="10.00" arrivalSpeed="12.46" duration="87.00" routeLength="1015.10" waitingTime="0.00" waitingCount="0" stopTime="0.00" timeLoss="14.58" rerouteNo="0" devices="tripinfo_left_45" vType="typeWE@left_45" speedFactor="1.09" vaporized=""/>
    <tripinfo id="right_34" depart="81.00" departLane="51o_0" departPos="5.10" departSpeed="0.00" departDelay="0.00" arrival="206.00" arrivalLane="52i_0" arrivalPos="10.00" arrivalSpeed="11.29" duration="125.00" routeLength="1015.10" waitingTime="22.00" waitingCount="1" stopTime="0.00" timeLoss="48.52" rerouteNo="0" devices="tripinfo_right_34" vType="typeWE@right_34" speedFactor="0.99" vaporized=""/>
    <tripinfo id="right_36" depart="92.00" departLane="51o_0" departPos="5.10" departSpeed="0.00" departDelay="0.00" arrival="210.00" arrivalLane="52i_0" arrivalPos="10.00" arrivalSpeed="11.04" duration="118.00" routeLength="1015.10" waitingTime="15.00" waitingCount="1" stopTime="0.00" timeLoss="40.65" rerouteNo="0" devices="tripinfo_right_36" vType="typeWE@right_36" speedFactor="0.97" vaporized=""/>
    <tripinfo id="right_44" depart="115.00" departLane="51o_0" departPos="5.10" departSpeed="0.00" departDelay="0.00" arrival="211.00" arrivalLane="52i_0" arrivalPos="10.00" arrivalSpeed="11.12" duration="96.00" routeLength="1015.10" waitingTime="0.00" waitingCount="0" stopTime="0.00" timeLoss="21.72" rerouteNo="0" devices="tripinfo_right_44" vType="typeWE@right_44" speedFactor="1.04" vaporized=""/>
    <tripinfo id="left_46" depart="122.00" departLane="52o_0" departPos="5.10" departSpeed="0.00" departDelay="2.00" arrival="215.00" arrivalLane="51i_0" arrivalPos="10.00" arrivalSpeed="11.58" duration="93.00" routeLength="1015.10" waitingTime="0.00" waitingCount="0" stopTime="0.00" timeLoss="16.41" rerouteNo="0" devices="tripinfo_left_46" vType="typeWE@left_46" speedFactor="1.00" vaporized=""/>
    <tripinfo id="left_47" depart="128.00" departLane="52o_0" departPos="5.10" departSpeed="0.00" departDelay="5.00" arrival="224.00" arrivalLane="51i_0" arrivalPos="10.00" arrivalSpeed="10.20" duration="96.00" routeLength="1015.10" waitingTime="0.00" waitingCount="0" stopTime="0.00" timeLoss="14.33" rerouteNo="0" devices="tripinfo_left_47" vType="typeWE@left_47" speedFactor="0.90" vaporized=""/>
    <tripinfo id="right_49" depart="126.00" departLane="51o_0" departPos="5.10" departSpeed="0.00" departDelay="0.00" arrival="226.00" arrivalLane="52i_0" arrivalPos="10.00" arrivalSpeed="10.32" duration="100.00" routeLength="1015.10" waitingTime="0.00" waitingCount="0" stopTime="0.00" timeLoss="15.37" rerouteNo="0" devices="tripinfo_right_49" vType="typeWE@right_49" speedFactor="0.85" vaporized=""/>
    <tripinfo id="right_50" depart="131.00" departLane="51o_0" departPos="5.10" departSpeed="0.00" departDelay="4.00" arrival="230.00" arrivalLane="52i_0" arrivalPos="10.00" arrivalSpeed="10.20" duration="99.00" routeLength="1015.10" waitingTime="0.00" waitingCount="0" stopTime="0.00" timeLoss="15.03" rerouteNo="0" devices="tripinfo_right_50" vType="typeWE@right_50" speedFactor="0.85" vaporized=""/>
    <tripinfo id="left_48" depart="133.00" departLane="52o_0" departPos="5.10" departSpeed="0.00" departDelay="8.00" arrival="231.00" arrivalLane="51i_0" arrivalPos="10.00" arrivalSpeed="10.02" duration="98.00" routeLength="1015.10" waitingTime="0.00" waitingCount="0" stopTime="0.00" timeLoss="15.20" rerouteNo="0" devices="tripinfo_left_48" vType="typeWE@left_48" speedFactor="0.88" vaporized=""/>
    <tripinfo id="down_52" depart="130.00" departLane="54o_0" departPos="7.10" departSpeed="0.00" departDelay="1.00" arrival="235.00" arrivalLane="53i_0" arrivalPos="10.00" arrivalSpeed="11.64" duration="105.00" routeLength="1013.10" waitingTime="5.00" waitingCount="1" stopTime="0.00" timeLoss="34.52" rerouteNo="0" devices="tripinfo_down_52" vType="typeNS@down_52" speedFactor="1.02" vaporized=""/>
    <tripinfo id="up_41" depart="109.00" departLane="53o_0" departPos="7.10" departSpeed="0.00" departDelay="5.00" arrival="237.00" arrivalLane="54i_0" arrivalPos="10.00" arrivalSpeed="11.07" duration="128.00" routeLength="1013.10" waitingTime="26.00" waitingCount="1" stopTime="0.00" timeLoss="53.17" rerouteNo="0" devices="tripinfo_up_41" vType="typeNS@up_41" speedFactor="0.96" vaporized=""/>
    <tripinfo id="down_58" depart="149.00" departLane="54o_0" departPos="7.10" departSpeed="0.00" departDelay="0.00" arrival="237.00" arrivalLane="53i_0" arrivalPos="10.00" arrivalSpeed="11.56" duration="88.00" routeLength="1013.10" waitingTime="0.00" waitingCount="0" stopTime="0.00" timeLoss="18.05" rerouteNo="0" devices="tripinfo_down_58" vType="typeNS@down_58" speedFactor="1.02" vaporized=""/>
    <tripinfo id="up_42" depart="115.00" departLane="53o_0" departPos="7.10" departSpeed="0.00" departDelay="9.00" arrival="238.00" arrivalLane="54i_0" arrivalPos="10.00" arrivalSpeed="10.97" duration="123.00" routeLength="1013.10" waitingTime="26.00" waitingCount="1" stopTime="0.00" timeLoss="57.54" rerouteNo="0" devices="tripinfo_up_42" vType="typeNS@up_42" speedFactor="1.09" vaporized=""/>
    <tripinfo id="up_43" depart="121.00" departLane="53o_0" departPos="7.10" departSpeed="0.00" departDelay="13.00" arrival="240.00" arrivalLane="54i_0" arrivalPos="10.00" arrivalSpeed="11.97" duration="119.00" routeLength="1013.10" waitingTime="21.00" waitingCount="1" stopTime="0.00" timeLoss="49.83" rerouteNo="0" devices="tripinfo_up_43" vType="typeNS@up_43" speedFactor="1.04" vaporized=""/>
    <tripinfo id="up_54" depart="135.00" departLane="53o_0" departPos="7.10" departSpeed="0.00" departDelay="0.00" arrival="244.00" arrivalLane="54i_0" arrivalPos="10.00" arrivalSpeed="11.86" duration="109.00" routeLength="1013.10" waitingTime="9.00" waitingCount="1" stopTime="0.00" timeLoss="37.87" rerouteNo="0" devices="tripinfo_up_54" vType="typeNS@up_54" speedFactor="1.00" vaporized=""/>
    <tripinfo id="up_56" depart="145.00" departLane="53o_0" departPos="7.10" departSpeed="0.00" departDelay="0.00" arrival="253.00" arrivalLane="54i_0" arrivalPos="10.00" arrivalSpeed="10.46" duration="108.00" routeLength="1013.10" waitingTime="1.00" waitingCount="1" stopTime="0.00" timeLoss="28.09" rerouteNo="0" devices="tripinfo_up_56" vType="typeNS@up_56" speedFactor="0.90" vaporized=""/>
    <tripinfo id="up_62" depart="162.00" departLane="53o_0" departPos="7.10" departSpeed="0.00" departDelay="0.00" arrival="254.00" arrivalLane="54i_0" arrivalPos="10.00" arrivalSpeed="10.14" duration="92.00" routeLength="1013.10" waitingTime="0.00" waitingCount="0" stopTime="0.00" timeLoss="21.63" rerouteNo="0" devices="tripinfo_up_62" vType="typeNS@up_62" speedFactor="1.02" vaporized=""/>
    <tripinfo id="down_64" depart="164.00" departLane="54o_0" departPos="7.10" departSpeed="0.00" departDelay="0.00" arrival="258.00" arrivalLane="53i_0" arrivalPos="10.00" arrivalSpeed="10.93" duration="94.00" routeLength="1013.10" waitingTime="0.00" waitingCount="0" stopTime="0.00" timeLoss="17.63" rerouteNo="0" devices="tripinfo_down_64" vType="typeNS@down_64" speedFactor="0.94" vaporized=""/>
    <tripinfo id="left_51" depart="138.00" departLane="52o_0" departPos="5.10" departSpeed="0.00" departDelay="9.00" arrival="260.00" arrivalLane="51i_0" arrivalPos="10.00" arrivalSpeed="13.58" duration="122.00" routeLength="1015.10" waitingTime="25.00" waitingCount="1" stopTime="0.00" timeLoss="52.58" rerouteNo="0" devices="tripinfo_left_51" vType="typeWE@left_51" speedFactor="1.17" vaporized=""/>
    <tripinfo id="right_53" depart="136.00" departLane="51o_0" departPos="5.10" departSpeed="0.00" departDelay="4.00" arrival="261.00" arrivalLane="52i_0" arrivalPos="10.00" arrivalSpeed="12.64" duration="125.00" routeLength="1015.10" waitingTime="30.00" waitingCount="1" stopTime="0.00" timeLoss="52.52" rerouteNo="0" devices="tripinfo_right_53" vType="typeWE@right_53" speedFactor="1.10" vaporized=""/>
    <tripinfo id="left_55" depart="143.00" departLane="52o_0" departPos="5.10" departSpeed="0.00" departDelay="6.00" arrival="268.00" arrivalLane="51i_0" arrivalPos="10.00" arrivalSpeed="11.34" duration="125.00" routeLength="1015.10" waitingTime="25.00" waitingCount="1" stopTime="0.00" timeLoss="48.72" rerouteNo="0" devices="tripinfo_left_55" vType="typeWE@left_55" speedFactor="1.00" vaporized=""/>
    <tripinfo id="left_57" depart="148.00" departLane="52o_0" departPos="5.10" departSpeed="0.00" departDelay="1.00" arrival="269.00" arrivalLane="51i_0" arrivalPos="10.00" arrivalSpeed="11.02" duration="121.00" routeLength="1015.10" waitingTime="19.00" waitingCount="1" stopTime="0.00" timeLoss="50.57" rerouteNo="0" devices="tripinfo_left_57" vType="typeWE@left_57" speedFactor="1.14" vaporized=""/>
    <tripinfo id="left_61" depart="159.00" departLane="52o_0" departPos="5.10" departSpeed="0.00" departDelay="0.00" arrival="270.00" arrivalLane="51i_0" arrivalPos="10.00" arrivalSpeed="11.14" duration="111.00" routeLength="1015.10" waitingTime="11.00" waitingCount="1" stopTime="0.00" timeLoss="39.79" rerouteNo="0" devices="tripinfo_left_61" vType="typeWE@left_61" speedFactor="1.12" vaporized=""/>
    <tripinfo id="right_59" depart="150.00" departLane="51o_0" departPos="5.10" departSpeed="0.00" departDelay="0.00" arrival="271.00" arrivalLane="52i_0" arrivalPos="10.00" arrivalSpeed="11.22" duration="121.00" routeLength="1015.10" waitingTime="18.00" waitingCount="1" stopTime="0.00" timeLoss="43.03" rerouteNo="0" devices="tripinfo_right_59" vType="typeWE@right_59" speedFactor="0.97" vaporized=""/>
    <tripinfo id="right_60" depart="155.00" departLane="51o_0" departPos="5.10" departSpeed="0.00" departDelay="3.00" arrival="272.00" arrivalLane="52i_0" arrivalPos="10.00" arrivalSpeed="11.25" duration="117.00" routeLength="1015.10" waitingTime="14.00" waitingCount="1" stopTime="0.00" timeLoss="43.89" rerouteNo="0" devices="tripinfo_right_60" vType="typeWE@right_60" speedFactor="1.08" vaporized=""/>
    <tripinfo id="right_63" depart="165.00" departLane="51o_0" departPos="5.10" departSpeed="0.00" departDelay="1.00" arrival="274.00" arrivalLane="52i_0" arrivalPos="10.00" arrivalSpeed="11.38" duration="109.00" routeLength="1015.10" waitingTime="7.00" waitingCount="1" stopTime="0.00" timeLoss="31.97" rerouteNo="0" devices="tripinfo_right_63" vType="typeWE@right_63" speedFactor="0.99" vaporized=""/>
    <tripinfo id="right_66" depart="171.00" departLane="51o_0" departPos="5.10" departSpeed="0.00" departDelay="0.00" arrival="280.00" arrivalLane="52i_0" arrivalPos="10.00" arrivalSpeed="10.69" duration="109.00" routeLength="1015.10" waitingTime="5.00" waitingCount="1" stopTime="0.00" timeLoss="28.21" rerouteNo="0" devices="tripinfo_right_66" vType="typeWE@right_66" speedFactor="0.91" vaporized=""/>
    <tripinfo id="right_69" depart="179.00" departLane="51o_0" departPos="5.10" departSpeed="0.00" departDelay="0.00" arrival="281.00" arrivalLane="52i_0" arrivalPos="10.00" arrivalSpeed="10.52" duration="102.00" routeLength="1015.10" waitingTime="0.00" waitingCount="0" stopTime="0.00" timeLoss="26.96" rerouteNo="0" devices="tripinfo_right_69" vType="typeWE@right_69" speedFactor="1.02" vaporized=""/>
    <tripinfo id="right_70" depart="184.00" departLane="51o_0" departPos="5.10" departSpeed="0.00" departDelay="4.00" arrival="282.00" arrivalLane="52i_0" arrivalPos="10.00" arrivalSpeed="10.61" duration="98.00" routeLength="1015.10" waitingTime="0.00" waitingCount="0" stopTime="0.00" timeLoss="23.06" rerouteNo="0" devices="tripinfo_right_70" vType="typeWE@right_70" speedFactor="1.02" vaporized=""/>
    <tripinfo id="right_71" depart="189.00" departLane="51o_0" departPos="5.10" departSpeed="0.00" departDelay="7.00" arrival="283.00" arrivalLane="52i_0" arrivalPos="10.00" arrivalSpeed="10.79" duration="94.00" routeLength="1015.10" waitingTime="0.00" waitingCount="0" stopTime="0.00" timeLoss="16.87" rerouteNo="0" devices="tripinfo_right_71" vType="typeWE@right_71" speedFactor="0.97" vaporized=""/>
    <tripinfo id="down_74" depart="206.00" departLane="54o_0" departPos="7.10" departSpeed="0.00" departDelay="0.00" arrival="298.00" arrivalLane="53i_0" arrivalPos="10.00" arrivalSpeed="11.04" duration="92.00" routeLength="1013.10" waitingTime="0.00" waitingCount="0" stopTime="0.00" timeLoss="17.17" rerouteNo="0" devices="tripinfo_down_74" vType="typeNS@down_74" speedFactor="0.96" vaporized=""/>
    <tripinfo id="up_65" depart="170.00" departLane="53o_0" departPos="7.10" departSpeed="0.00" departDelay="0.00" arrival="301.00" arrivalLane="54i_0" arrivalPos="10.00" arrivalSpeed="10.02" duration="131.00" routeLength="1013.10" waitingTime="23.00" waitingCount="1" stopTime="0.00" timeLoss="49.48" rerouteNo="0" devices="tripinfo_up_65" vType="typeNS@up_65" speedFactor="0.88" vaporized=""/>
    <tripinfo id="up_67" depart="176.00" departLane="53o_0" departPos="7.10" departSpeed="0.00" departDelay="1.00" arrival="302.00" arrivalLane="54i_0" arrivalPos="10.00" arrivalSpeed="9.66" duration="126.00" routeLength="1013.10" waitingTime="22.00" waitingCount="1" stopTime="0.00" timeLoss="47.61" rerouteNo="0" devices="tripinfo_up_67" vType="typeNS@up_67" speedFactor="0.91" vaporized=""/>